# vtk DataFile Version 1.0
Net Charge Density
ASCII
DATASET STRUCTURED_POINTS
DIMENSIONS 256 128 1
ORIGIN 0 0 0
SPACING 0.15625 0.15625 1
POINT_DATA 32768
SCALARS rhonet float
LOOKUP_TABLE default
0.0246382
0.0114547
0.0129252
0.0130637
0.012418
0.0132565
0.0131519
0.0127685
0.013914
0.0144687
0.0129709
0.0144025
0.0127529
0.0115478
0.0117436
0.0141015
0.0133594
0.0125707
0.0123586
0.0127172
0.0131364
0.0139066
0.0122241
0.0128961
0.0135072
0.0128956
0.0131402
0.0130795
0.0137113
0.0127209
0.0118411
0.0118558
0.0130051
0.0139408
0.0133119
0.0133277
0.0137036
0.0120026
0.0126649
0.0133304
0.0138185
0.0137668
0.0134989
0.0133524
0.0135846
0.0125707
0.0126668
0.0132131
0.013038
0.0135718
0.0139655
0.0123634
0.0132123
0.013468
0.0118798
0.0126104
0.0127591
0.0133646
0.0137234
0.01216
0.0122826
0.0137396
0.0141438
0.0131519
0.0115548
0.0133418
0.0132613
0.0133361
0.0127248
0.0123779
0.0123502
0.0120063
0.0120065
0.0147769
0.012975
0.0123916
0.0127477
0.0142898
0.0137618
0.0126083
0.0116003
0.0122282
0.0140238
0.0135235
0.0140428
0.01284
0.0136513
0.0112825
0.0141897
0.0144011
0.0132059
0.0126012
0.0119608
0.0128428
0.0123158
0.0135183
0.0127851
0.0130147
0.0118335
0.0151118
0.0137345
0.0122602
0.0137035
0.0125796
0.0128708
0.0136599
0.0125532
0.0120104
0.0130089
0.012201
0.013221
0.0138683
0.0119765
0.01177
0.0109813
0.0125202
0.0140145
0.0141313
0.0129851
0.0118366
0.0125683
0.0124205
0.0128821
0.0128966
0.0120556
0.0128359
0.0129692
0.0127202
0.0141793
0.0119765
0.0127285
0.0129268
0.0128913
0.0123014
0.012863
0.0126793
0.0143243
0.0140524
0.0126085
0.0116676
0.0124926
0.0131672
0.0125832
0.0128333
0.0128632
0.0127289
0.0132918
0.0128595
0.013003
0.0140974
0.012812
0.01165
0.0140382
0.013791
0.013259
0.012659
0.0130988
0.0131084
0.0123727
0.0126552
0.0136069
0.0137987
0.0113656
0.0132982
0.0124382
0.0126455
0.013825
0.0141456
0.0138897
0.0129324
0.0126521
0.0127149
0.0128814
0.0120859
0.0127132
0.0130949
0.0139571
0.0127591
0.0117539
0.0131173
0.013716
0.0132654
0.0124907
0.0113371
0.0131357
0.0128698
0.0136211
0.0132277
0.0134198
0.0143429
0.0139797
0.0133665
0.0132639
0.0115537
0.0119727
0.0148014
0.0140369
0.0132761
0.0133386
0.0127134
0.0128503
0.0131489
0.0138984
0.013422
0.0112443
0.014352
0.01253
0.0134211
0.0119244
0.014244
0.012972
0.0118807
0.013849
0.0135363
0.0129994
0.0126514
0.0132323
0.0130938
0.0126827
0.0133844
0.0119632
0.0126699
0.0140671
0.013831
0.0123208
0.0134815
0.0125417
0.0131164
0.0113919
0.0127778
0.0139667
0.0129488
0.0123398
0.0141635
0.0132714
0.0135402
0.0133128
0.0121271
0.0125349
0.0139714
0.0129031
0.0113631
0.0133752
0.0132713
0.0134879
0.0131717
0.0132427
0.0126441
0.0134945
0.0131863
0.0131318
0.0114542
0.0127478
0.0116401
0.0126894
0.0134472
0.0134932
0.006505
0.00658074
0.00589903
0.00660506
0.00647074
0.00471045
0.00620718
0.00715041
0.00587888
0.00633391
0.00750078
0.00616312
0.00586405
0.0053423
0.00640402
0.00653191
0.00551176
0.0068369
0.00717901
0.00631474
0.00536726
0.0065209
0.00590584
0.00598145
0.00498278
0.00727324
0.0064657
0.00661237
0.00669858
0.00628099
0.00694969
0.00633799
0.00621579
0.00599563
0.00605073
0.00645888
0.00629364
0.00617651
0.00586936
0.00580023
0.00588198
0.00548658
0.00707624
0.00581712
0.00556214
0.00669335
0.00644901
0.00624107
0.00664318
0.00583427
0.00646084
0.00657868
0.00659841
0.00644621
0.00534164
0.00696843
0.00644557
0.00583429
0.00663095
0.00658176
0.00586874
0.00628624
0.00631671
0.005693
0.00655993
0.00600686
0.00603373
0.00666476
0.00591105
0.00659009
0.0060024
0.006542
0.00694001
0.00698361
0.00654732
0.00635894
0.00583073
0.00660957
0.00561564
0.00546326
0.00604919
0.00697248
0.00570676
0.00609711
0.00611634
0.00683806
0.00514582
0.00665553
0.00510232
0.00573304
0.00621912
0.00635663
0.00642838
0.00651324
0.00644808
0.00565518
0.00630939
0.00617856
0.00648977
0.00614913
0.00609973
0.00627868
0.00692488
0.00649179
0.00616284
0.00548911
0.00729187
0.0063018
0.00494169
0.00577819
0.00613062
0.0052554
0.00665232
0.00661671
0.00634059
0.00671963
0.00606507
0.00609653
0.00594772
0.00644387
0.00570188
0.00670769
0.00709299
0.00636441
0.00710336
0.00615639
0.00630152
0.00687943
0.0060503
0.00631949
0.00748385
0.00608351
0.00549077
0.00626563
0.00696202
0.00555283
0.00578236
0.00638451
0.00520018
0.00719575
0.00689481
0.00665243
0.00602025
0.00573453
0.00636009
0.00708641
0.00637396
0.00685355
0.00656961
0.00600595
0.00633032
0.00681133
0.00556502
0.00558637
0.00611041
0.00720601
0.0057996
0.0061194
0.00617217
0.00665152
0.00625492
0.00649732
0.00718496
0.0065855
0.00581926
0.0061609
0.0063749
0.0061555
0.0052167
0.0066468
0.00762375
0.00643709
0.00620669
0.00669779
0.00591557
0.00633372
0.0058645
0.00627443
0.00598123
0.00657788
0.00655077
0.0060173
0.00507473
0.0058692
0.00632083
0.00622341
0.00518232
0.00647026
0.00551692
0.0052818
0.00598436
0.00690349
0.00662215
0.00613725
0.00576464
0.00595399
0.00537629
0.0058909
0.00625468
0.00682873
0.00542432
0.00584283
0.00663896
0.00706475
0.00518922
0.00545177
0.00694002
0.00536625
0.00716457
0.00583472
0.00640313
0.00764456
0.00628488
0.00599505
0.00618643
0.00591045
0.00612714
0.00538626
0.00681893
0.00641487
0.00608518
0.00652002
0.0059864
0.00627043
0.00636886
0.00645165
0.00699764
0.00493368
0.007043
0.00644684
0.00574376
0.0057979
0.0064059
0.00536399
0.00574994
0.00702583
0.00606902
0.0066945
0.00650043
0.00632928
0.00638301
0.0058235
0.00591063
0.00614317
0.00572258
0.00688041
0.0048473
0.00617715
0.00608974
0.00654209
0.00598448
0.00629782
0.00649329
0.00606262
0.00667579
0.0119819
0.00610688
0.0068051
0.00681039
0.00532046
0.00593659
0.00702857
0.0063205
0.0062147
0.00551016
0.00630469
0.00710748
0.00528542
0.0068474
0.00705112
0.00623584
0.00630135
0.0065751
0.00646579
0.00729263
0.00589535
0.00579381
0.00775009
0.00586719
0.00606031
0.00691238
0.00555639
0.00579261
0.00600179
0.00609385
0.00661219
0.00670744
0.0058326
0.00678086
0.00718608
0.00658153
0.00594368
0.00672914
0.00610367
0.00632816
0.0074166
0.00592649
0.00598228
0.00552715
0.00625431
0.00583299
0.00643763
0.00644686
0.00583455
0.00718631
0.00541091
0.00655617
0.0059167
0.00686915
0.00678948
0.00563466
0.00715864
0.00652994
0.00562604
0.00704916
0.0060561
0.00599907
0.00646433
0.00693083
0.00703953
0.006695
0.00679947
0.00628336
0.00642183
0.00651599
0.00670093
0.0068322
0.00606305
0.00548859
0.00518325
0.00611716
0.00524045
0.00648448
0.00676115
0.00690984
0.0067677
0.00643783
0.00626478
0.00726027
0.00630353
0.00690888
0.00666071
0.00561017
0.00608819
0.00751716
0.00600694
0.00606301
0.00648705
0.00740509
0.00591108
0.00737068
0.00641003
0.00606502
0.00641872
0.00603726
0.00561969
0.0055046
0.00559353
0.00688859
0.0072969
0.00569184
0.00676544
0.00726354
0.00651772
0.00590319
0.00683414
0.00728529
0.00793752
0.00620732
0.0074507
0.0063338
0.00629137
0.00642211
0.00712243
0.00599449
0.00687558
0.00593622
0.00550132
0.00682695
0.00662382
0.00648162
0.00615776
0.00609739
0.00557457
0.00570082
0.00688336
0.00578911
0.00646724
0.00616836
0.00708459
0.00553479
0.00534565
0.00724112
0.00571834
0.00642152
0.006854
0.00630187
0.00699474
0.00690638
0.00543436
0.00703989
0.00742199
0.00552679
0.0065033
0.00575367
0.0060993
0.0062368
0.00663554
0.00554492
0.0055298
0.00639726
0.00638327
0.00636047
0.00739399
0.005354
0.00579844
0.00638256
0.00554579
0.00658089
0.00632797
0.00705978
0.00634338
0.00592119
0.00628246
0.0069794
0.00634552
0.00600965
0.00546547
0.00629901
0.00669987
0.00618548
0.00662762
0.00640381
0.00527533
0.00741692
0.00601904
0.0064823
0.00673554
0.00672323
0.00677904
0.00702095
0.00594351
0.00684934
0.00545615
0.00676882
0.00553783
0.00751784
0.00643806
0.0059328
0.00697625
0.00706309
0.00646929
0.00595761
0.00582233
0.0065288
0.00656953
0.00743117
0.00694146
0.00599567
0.00623708
0.00611024
0.00771495
0.00612661
0.00641039
0.00675095
0.0056718
0.0057575
0.00646278
0.00625401
0.00609
0.00648825
0.00631274
0.00666186
0.00659253
0.00662439
0.00703
0.00606178
0.00674805
0.00647005
0.00648032
0.00661071
0.00715757
0.00629892
0.00570358
0.00621241
0.00734795
0.00694231
0.00668364
0.00696807
0.00623538
0.00648529
0.00696162
0.00631385
0.00641122
0.00666606
0.00676154
0.00577899
0.00633654
0.00674307
0.00638379
0.0054674
0.00653173
0.00593957
0.00747181
0.00700692
0.00647737
0.00722401
0.00683966
0.00610758
0.00580461
0.0073044
0.0120291
0.00702098
0.0065832
0.00673304
0.00571447
0.00660403
0.00769234
0.0053548
0.00574738
0.00664266
0.00611715
0.00696585
0.00572277
0.00578202
0.0068499
0.00650826
0.00651691
0.00707683
0.00585808
0.00724122
0.00595692
0.00552803
0.00652674
0.00557869
0.00668936
0.00645341
0.00635848
0.0062838
0.00757634
0.00666168
0.0063601
0.00601435
0.00611153
0.00611808
0.00607071
0.00464984
0.00585211
0.0069798
0.00597798
0.00591185
0.00651021
0.00701928
0.006193
0.00657111
0.00717225
0.00609185
0.00657232
0.00594875
0.0072271
0.00570771
0.00593483
0.00577048
0.00625928
0.00608792
0.00599098
0.0061161
0.00644067
0.00609263
0.00635566
0.00589401
0.00621507
0.00598405
0.00572804
0.00653092
0.00674202
0.00641296
0.00592848
0.00699126
0.00616872
0.00596016
0.00665123
0.00712945
0.00686958
0.00560093
0.00651144
0.00761841
0.00542671
0.00633836
0.00588216
0.00631453
0.00642672
0.00622801
0.00704119
0.00643377
0.00573313
0.00674652
0.00583914
0.00576717
0.00638895
0.00687096
0.00678801
0.0060996
0.00539326
0.00544076
0.00586233
0.00676396
0.00540252
0.00656086
0.00602927
0.00620831
0.0076446
0.00669006
0.0053434
0.00575371
0.00580284
0.0066392
0.00723903
0.00522517
0.00626518
0.00595273
0.00709707
0.00609905
0.006508
0.00658904
0.00605137
0.00609162
0.00552688
0.00789322
0.00671546
0.00602739
0.00628455
0.00744669
0.00611804
0.00587253
0.0071312
0.00576428
0.00696256
0.00642479
0.00690797
0.00637816
0.00618309
0.00657071
0.00766873
0.00627307
0.00679153
0.00598661
0.00707173
0.00704849
0.0070582
0.00658303
0.00679496
0.00566309
0.00589496
0.00641404
0.00604119
0.00655395
0.00642366
0.0052736
0.0070651
0.00600791
0.00605275
0.0064584
0.00540562
0.00631754
0.00656988
0.00698562
0.00654116
0.00524816
0.00697049
0.00709129
0.00556129
0.00651137
0.00625923
0.00625014
0.00561098
0.00605509
0.00584654
0.00624313
0.00683019
0.00637909
0.00636876
0.00769814
0.00638312
0.00617835
0.00687237
0.00671384
0.00686045
0.00629092
0.00687563
0.00720666
0.00587145
0.00608225
0.00546211
0.0063921
0.00651566
0.00587774
0.00603215
0.00673992
0.00635661
0.00620965
0.00641659
0.0070216
0.00691636
0.00677348
0.00607749
0.00640804
0.00711167
0.00610934
0.00533566
0.00562109
0.00619239
0.00650078
0.00618976
0.00592264
0.00731352
0.00645416
0.00593209
0.00545537
0.00632563
0.00647701
0.00629873
0.00564931
0.00655004
0.00673026
0.00599406
0.00622662
0.00644205
0.00719238
0.0063752
0.00487571
0.00642918
0.0068575
0.00646409
0.00709231
0.00613413
0.00553321
0.00623713
0.00620065
0.00599729
0.00690308
0.00585219
0.00529717
0.00659014
0.00589411
0.00594172
0.00594063
0.00665001
0.00643796
0.00638015
0.00572639
0.00623557
0.00633828
0.00681305
0.00693328
0.00596928
0.00675324
0.0070095
0.00658745
0.00539891
0.00674769
0.00612569
0.00652044
0.00644061
0.00535013
0.00579854
0.00717814
0.0123996
0.00613267
0.00595556
0.00683037
0.0059745
0.0057605
0.00664513
0.00575248
0.00639644
0.00681054
0.00709597
0.00490237
0.00624779
0.00670523
0.00668511
0.00634075
0.00633553
0.00565824
0.00585458
0.00679005
0.0057629
0.00605196
0.00665623
0.00649915
0.00707144
0.00713688
0.00618778
0.0067006
0.0065937
0.00593358
0.00617449
0.00592824
0.00703312
0.00597556
0.00735993
0.00657908
0.00611203
0.0071453
0.00679886
0.00683757
0.0055483
0.00618688
0.00608333
0.00648523
0.00651736
0.00701592
0.00582393
0.00554608
0.0072347
0.00541474
0.00715272
0.0057307
0.00611682
0.00611265
0.0067895
0.00661094
0.00622953
0.00649403
0.00687497
0.00585539
0.00705591
0.0065985
0.00541077
0.00590458
0.00678769
0.00745898
0.00536784
0.00650609
0.00684182
0.00618026
0.00651023
0.00564874
0.00766704
0.00539595
0.00658639
0.00633196
0.00652495
0.00599976
0.00605291
0.00628987
0.00639675
0.00556952
0.00591991
0.00747032
0.00555401
0.0057828
0.0070249
0.0047625
0.00674767
0.00713571
0.0065483
0.00706712
0.00579509
0.0065578
0.00684288
0.00651824
0.00601234
0.00671506
0.00620144
0.00598494
0.00532755
0.00688491
0.00668649
0.00709231
0.00579314
0.00676499
0.00600371
0.00688929
0.00576784
0.00650425
0.00634305
0.0057499
0.00634162
0.00640889
0.00712223
0.00517775
0.00524647
0.00641142
0.00617825
0.00542455
0.00670356
0.0070811
0.00617141
0.00642903
0.00602174
0.00576585
0.00646859
0.00567252
0.00631903
0.00666974
0.0064441
0.00529499
0.00607623
0.00681665
0.00634258
0.0057797
0.00653086
0.00608796
0.0064313
0.00545981
0.00678202
0.00670253
0.0063193
0.00614187
0.00628733
0.00568264
0.00629507
0.00699924
0.00581291
0.00700256
0.00640342
0.00648482
0.00647477
0.00709645
0.00679382
0.00623426
0.00666938
0.00649499
0.00557282
0.00632824
0.00624645
0.00634632
0.00645728
0.00662407
0.00664521
0.00618215
0.00570368
0.00717773
0.00729011
0.00668984
0.00630853
0.00540223
0.00610262
0.00685601
0.00619666
0.0057939
0.00568801
0.00626865
0.00682222
0.0066129
0.00667094
0.00670813
0.00641152
0.00656739
0.00668816
0.00716117
0.00633673
0.00630341
0.00606268
0.00745456
0.00597817
0.00619652
0.00536874
0.00582721
0.00728521
0.00582601
0.00623152
0.00662002
0.00609957
0.00697568
0.00674277
0.00630089
0.00592431
0.00620866
0.00693142
0.00621847
0.00719987
0.00679362
0.00721154
0.00554642
0.00627466
0.00656462
0.00625999
0.00630951
0.00574143
0.0063438
0.00624982
0.00717474
0.0065014
0.00693577
0.00703656
0.00584977
0.00612928
0.0060772
0.00611532
0.00540987
0.00687339
0.00663031
0.00603919
0.00637052
0.00557944
0.00615093
0.00725083
0.00651076
0.00591325
0.00602311
0.00670313
0.00635817
0.00570013
0.00596506
0.00702041
0.00596549
0.00652966
0.00704558
0.00620964
0.00546056
0.00712011
0.00670482
0.00521797
0.00643363
0.00563928
0.00736044
0.00751543
0.00643744
0.00732843
0.00559056
0.0129968
0.00652395
0.00660649
0.00668756
0.00677488
0.00718824
0.00612846
0.00639834
0.00701525
0.00684987
0.00715961
0.00487147
0.00540305
0.0059002
0.00578422
0.00659413
0.00562536
0.00628552
0.00703462
0.00699039
0.00604554
0.00609362
0.00601752
0.00624891
0.00554827
0.00632716
0.00645381
0.00529707
0.00553521
0.00554544
0.00721453
0.00648184
0.00708837
0.0070729
0.00695698
0.00662735
0.00647161
0.00639701
0.00581104
0.0063023
0.00637953
0.00710751
0.00557197
0.00610012
0.00685825
0.00685073
0.00667766
0.00646804
0.00592644
0.00622074
0.00725813
0.00608267
0.00709869
0.00631846
0.00686975
0.00610518
0.00585726
0.00732688
0.00606083
0.00620878
0.00680742
0.00521448
0.00695426
0.00669472
0.00669882
0.0074069
0.00576523
0.00637012
0.00580513
0.00624385
0.00641476
0.00572917
0.0070057
0.0065612
0.00674071
0.00534139
0.0060535
0.0072761
0.00629551
0.00684443
0.00599677
0.00625062
0.00627443
0.0072994
0.00623552
0.00589672
0.00696413
0.00552551
0.00691538
0.00764117
0.00608748
0.00664656
0.0055095
0.00589094
0.00593019
0.00770527
0.00698462
0.00661915
0.00637338
0.00703395
0.00623683
0.00602569
0.00704152
0.00615926
0.00532435
0.00703788
0.0058886
0.00622835
0.00628478
0.00621836
0.00569178
0.00649233
0.00668462
0.0064639
0.00599117
0.00607344
0.00650676
0.0066019
0.00642848
0.00532858
0.00700248
0.00631441
0.00566333
0.00645526
0.00637019
0.00686248
0.00655363
0.00690671
0.00588091
0.0062035
0.00585561
0.0061286
0.00597019
0.00686486
0.00579255
0.00638471
0.00727986
0.0062016
0.00577031
0.006462
0.00650837
0.00624808
0.00607137
0.00629145
0.00635128
0.00495081
0.00579787
0.00637076
0.00697912
0.00742519
0.0060991
0.00623474
0.0059373
0.00538684
0.00579916
0.00659148
0.00701281
0.00584995
0.00622177
0.00723221
0.00695705
0.00611538
0.00691888
0.006961
0.0065802
0.00642765
0.00615894
0.00615001
0.00567175
0.00486954
0.00669938
0.00588137
0.00575539
0.0065606
0.00706301
0.00613737
0.00594799
0.00688259
0.00626494
0.00538604
0.00673289
0.00668973
0.00621725
0.00537819
0.00675887
0.00645678
0.0061135
0.00583884
0.00587829
0.00665221
0.00718046
0.0063928
0.00704378
0.00724354
0.00578884
0.00709824
0.00576535
0.00565209
0.00663996
0.00627407
0.00598361
0.00661547
0.0060133
0.00664376
0.00621745
0.00564676
0.00578522
0.00596892
0.00703578
0.0070174
0.00641502
0.00700554
0.00662231
0.00669864
0.0059024
0.00681752
0.00611049
0.00568251
0.0067421
0.00587361
0.00598639
0.00668732
0.00648892
0.00635046
0.0060323
0.00675998
0.00625782
0.00790472
0.00623202
0.00723488
0.00693639
0.00556804
0.00581276
0.00636252
0.00708766
0.00680303
0.00629954
0.00610274
0.00663858
0.00626637
0.00691161
0.00650834
0.0062861
0.00674383
0.00596979
0.00684513
0.00549179
0.00646156
0.00666546
0.00656436
0.00529175
0.00546736
0.00520921
0.00543207
0.00550011
0.00713716
0.0125209
0.00673142
0.00685178
0.00563656
0.00543915
0.00635661
0.00651888
0.00675624
0.00595865
0.00695127
0.00680629
0.00628491
0.00721988
0.00626318
0.00667522
0.00675251
0.00609432
0.00722561
0.00674395
0.00626236
0.00709867
0.00611858
0.00685132
0.00703427
0.00722844
0.00591312
0.00643085
0.00669498
0.006297
0.00615783
0.00601853
0.0066351
0.00561933
0.00658147
0.00623707
0.00629239
0.00609413
0.00583828
0.00756246
0.00617069
0.00658822
0.00628283
0.00646818
0.00680463
0.00608983
0.00521959
0.00655591
0.00693454
0.00794654
0.00529095
0.0055062
0.00589265
0.00558724
0.00618136
0.0072672
0.00654156
0.00675864
0.00636048
0.00653231
0.0063927
0.00595301
0.00530787
0.0060369
0.00607028
0.00673598
0.00702708
0.00615605
0.00671729
0.00552489
0.00653685
0.00606321
0.00634697
0.00700242
0.00654427
0.00655344
0.00637793
0.00582899
0.00620715
0.00710668
0.00633415
0.00682131
0.00579908
0.00736578
0.00599964
0.00633196
0.00676716
0.00633654
0.00682486
0.00617398
0.00563789
0.00609848
0.00618702
0.00641133
0.0061134
0.00658072
0.00602796
0.00628885
0.00685754
0.00585729
0.00639201
0.00633558
0.00644795
0.00633879
0.00712
0.00616481
0.00659646
0.00703709
0.00685808
0.00737878
0.0060744
0.00564537
0.00751404
0.00607288
0.00686981
0.00626839
0.00630909
0.00675754
0.00679555
0.00657459
0.00597491
0.00738502
0.00585899
0.00580852
0.00647938
0.00634712
0.00667427
0.00572442
0.00686382
0.00649723
0.00678166
0.006523
0.00713665
0.00633888
0.00716236
0.00591311
0.00523889
0.00583761
0.00696817
0.00682347
0.00629291
0.00575689
0.00586986
0.00573044
0.00641729
0.0067016
0.00582588
0.00652633
0.0069022
0.00652749
0.00606221
0.00729519
0.00656308
0.00771416
0.00600684
0.00614265
0.00511781
0.00588725
0.0056716
0.00570985
0.00712741
0.00605287
0.00564903
0.0061883
0.00736924
0.00618394
0.00673708
0.00586803
0.0064136
0.00546615
0.0061005
0.00727312
0.00728578
0.0065001
0.00716421
0.00694081
0.00598177
0.00638795
0.0064756
0.00639951
0.00631801
0.00657776
0.0060876
0.00589576
0.00604419
0.00650124
0.00632506
0.0070587
0.0061404
0.00681357
0.00532824
0.00674042
0.00714676
0.00621325
0.0058381
0.00557056
0.00614521
0.00633074
0.00685786
0.00645271
0.00573622
0.00652365
0.00646172
0.00616212
0.00645656
0.00683819
0.00614566
0.00605493
0.00627337
0.00598297
0.00753074
0.006082
0.00576158
0.00625924
0.00554402
0.0065809
0.00729774
0.00645472
0.00673875
0.0057293
0.00603191
0.00575683
0.00677319
0.00641272
0.00609847
0.00668278
0.00622545
0.00639196
0.00726909
0.00534258
0.00606829
0.00664073
0.00604973
0.00561634
0.00696743
0.00656058
0.00629417
0.00638033
0.00665553
0.006367
0.00585923
0.0060492
0.00639269
0.00658978
0.00637026
0.00578986
0.00654629
0.0066144
0.00737471
0.00720635
0.0063119
0.00596111
0.00648786
0.00655848
0.00658245
0.006144
0.00687966
0.0122414
0.0067888
0.00585097
0.00643235
0.00701708
0.00601457
0.00715525
0.00608029
0.006479
0.00528828
0.00599989
0.0074033
0.00644364
0.00604754
0.00616165
0.00653302
0.00593175
0.0069155
0.00508152
0.00661591
0.00638284
0.00655076
0.0063431
0.0058743
0.00569832
0.00629331
0.00643439
0.00632782
0.00578024
0.00663197
0.00636843
0.00648177
0.00738803
0.00514473
0.00645999
0.00725147
0.00632202
0.00581652
0.00580978
0.00598123
0.00643991
0.00647253
0.00658497
0.00744505
0.00684713
0.00499453
0.00562734
0.00690496
0.00614804
0.00704935
0.00642532
0.00696925
0.00704657
0.00710098
0.00592032
0.00618224
0.00623439
0.00626865
0.00677776
0.00697655
0.00656594
0.00575259
0.00537052
0.00627747
0.00704156
0.00607556
0.00549322
0.00696573
0.0059194
0.00617447
0.00573892
0.00533724
0.0069612
0.00610535
0.00676157
0.00740603
0.00742155
0.00592207
0.00672542
0.00612974
0.00564071
0.00677671
0.00604393
0.00679281
0.0062669
0.00691676
0.00616122
0.00631529
0.00649978
0.00568293
0.00671445
0.00742768
0.00748589
0.0056776
0.00712268
0.0065263
0.00650342
0.00671653
0.00567523
0.00612197
0.00609509
0.00579296
0.00684954
0.00623522
0.0060029
0.00660442
0.00776582
0.00585123
0.0065704
0.00609485
0.00559483
0.00622433
0.00612391
0.00602155
0.00708388
0.00703985
0.0062703
0.00619692
0.00710222
0.00592619
0.00644942
0.00688829
0.00633696
0.0063605
0.00622927
0.00673929
0.00551416
0.00698111
0.0067358
0.00554194
0.00590605
0.00759415
0.00617647
0.00526481
0.00557308
0.00657223
0.00654977
0.00711745
0.00607041
0.00677088
0.00685954
0.00607185
0.00686328
0.00743584
0.00678901
0.00649364
0.00641102
0.00702774
0.00653148
0.00608772
0.00636961
0.00514263
0.00711774
0.00604297
0.00729747
0.00630906
0.00677604
0.00635241
0.0068842
0.00693296
0.00629989
0.00625124
0.00524592
0.00682702
0.00630239
0.00664254
0.00579061
0.00573388
0.00683669
0.00807779
0.00619972
0.00636453
0.00605219
0.00696922
0.00620463
0.00537882
0.00625098
0.00623652
0.00704904
0.00701449
0.00671905
0.00567329
0.00523811
0.00748564
0.00713424
0.00687218
0.00641758
0.00665095
0.00622
0.00569061
0.00517672
0.00597082
0.00612253
0.00682907
0.00691135
0.00652671
0.00779547
0.00654399
0.00559631
0.00629359
0.00668774
0.00624227
0.00615695
0.00713183
0.00752564
0.00675887
0.00718525
0.00612743
0.00713305
0.00682655
0.00553454
0.00543193
0.00647216
0.00568057
0.00658559
0.00621027
0.00636363
0.00574713
0.00666064
0.00658631
0.00590142
0.00650373
0.00618355
0.00593758
0.00632003
0.00615917
0.00594846
0.00613316
0.00681473
0.00645118
0.00630419
0.00717904
0.00745685
0.00609562
0.0057792
0.00643149
0.00588103
0.0064883
0.00717286
0.0068409
0.00682296
0.00595522
0.00539384
0.00722567
0.00711608
0.00631486
0.00641688
0.0061288
0.00597369
0.00561054
0.00691026
0.0069889
0.0065681
0.00669226
0.0066518
0.00530592
0.0129586
0.00661204
0.00647566
0.00508779
0.00696065
0.00646876
0.00683304
0.0066837
0.00677567
0.00574566
0.00610123
0.00639313
0.00514106
0.00599364
0.00644673
0.00636012
0.00667575
0.00594994
0.00610071
0.00603435
0.00585837
0.00764749
0.00652962
0.00767907
0.0072286
0.00535095
0.00634258
0.00616365
0.00628247
0.00623673
0.00696923
0.00628239
0.00701
0.00662571
0.00657891
0.00606273
0.00614521
0.0070306
0.00657528
0.00697607
0.00628684
0.00542879
0.00694061
0.00607423
0.00738216
0.006361
0.00609379
0.00618682
0.00585689
0.00582597
0.00702753
0.00705643
0.00559246
0.00568511
0.00671046
0.00661185
0.00617081
0.00620242
0.0070772
0.00670404
0.00597613
0.00689235
0.00640139
0.00652162
0.00611518
0.00633625
0.00680523
0.00637745
0.00532215
0.00764841
0.00782576
0.00675774
0.00562345
0.00579373
0.0057857
0.00649027
0.0057106
0.0070015
0.00687055
0.00648283
0.00780118
0.00592486
0.00533566
0.00610497
0.00657902
0.00639891
0.00595801
0.00603634
0.00619652
0.00586813
0.00674588
0.00648827
0.00657367
0.00627423
0.00617099
0.0062732
0.00668555
0.00635998
0.00687035
0.0064668
0.00635375
0.00626892
0.00715434
0.00525459
0.00653145
0.00674091
0.00616675
0.00622145
0.0064588
0.00686514
0.00577542
0.00598473
0.00666469
0.00550679
0.0072062
0.0068241
0.0061751
0.00607231
0.00622103
0.00584467
0.00642513
0.00663206
0.00665995
0.00570994
0.00736336
0.00688444
0.00567495
0.00690061
0.00709407
0.0063815
0.00622906
0.0071944
0.00644322
0.00589073
0.0073511
0.00616954
0.00605331
0.00552755
0.00626619
0.00741645
0.00657091
0.0046791
0.00596458
0.00681053
0.00660279
0.00561517
0.00689126
0.00662624
0.00583426
0.00561227
0.00673547
0.00676567
0.00714172
0.00628818
0.00592142
0.00632786
0.00686091
0.00659653
0.00664149
0.00618588
0.00591597
0.00634283
0.00643411
0.00676385
0.00574705
0.00651377
0.00599564
0.00697627
0.00602632
0.00566692
0.00566064
0.00616682
0.0059609
0.00642139
0.00664382
0.00531163
0.00675327
0.00641664
0.00694874
0.00623287
0.00670802
0.00670533
0.00611214
0.0058677
0.00570988
0.00615484
0.00704114
0.00631661
0.00635556
0.00711996
0.00624197
0.00651684
0.00586692
0.00696574
0.00584421
0.0065624
0.00728099
0.00621521
0.00623316
0.00655473
0.00641921
0.00643751
0.00614194
0.00675383
0.00619002
0.00590568
0.00563665
0.00592805
0.00636271
0.00683134
0.00651186
0.00568783
0.00626994
0.00688702
0.00719807
0.00717029
0.00651586
0.00508223
0.00704107
0.00662657
0.00656719
0.00668136
0.00573505
0.00598262
0.00672567
0.00652349
0.00641803
0.00547863
0.00685601
0.00678915
0.00605506
0.00607258
0.0060173
0.00629538
0.00601986
0.00679388
0.0055354
0.00591137
0.00594157
0.0067015
0.00724835
0.00700509
0.00578038
0.0064484
0.00619851
0.00650861
0.00604196
0.00646209
0.0064996
0.0069135
0.00635293
0.0069239
0.00700795
0.006484
0.00597744
0.00622703
0.0122043
0.00635196
0.00721544
0.00610265
0.00625533
0.0056442
0.00516216
0.00610138
0.00670159
0.00625033
0.00720254
0.0065685
0.00671226
0.00649874
0.00629938
0.00755445
0.00623302
0.00647171
0.00713651
0.00666052
0.00628573
0.00617967
0.00639106
0.00705917
0.00620459
0.00757861
0.00635685
0.00658893
0.00621079
0.00587799
0.00611137
0.00697528
0.00604863
0.00589661
0.00639839
0.00590208
0.00571249
0.00609023
0.00615451
0.00636565
0.00598926
0.00520172
0.00695801
0.0062642
0.0058543
0.00588591
0.00663418
0.00630911
0.00650128
0.0066133
0.00669658
0.00604994
0.00614207
0.00613243
0.00715356
0.00701082
0.00571144
0.00515041
0.00606823
0.00629422
0.00651875
0.00571154
0.00657326
0.00683484
0.00586416
0.00661122
0.00740168
0.00707148
0.0064738
0.00624489
0.00582304
0.00606181
0.00572397
0.00624649
0.00707075
0.00651086
0.00678341
0.00621053
0.0057747
0.00639095
0.00638512
0.00612663
0.00632444
0.00670496
0.00678387
0.0065446
0.006154
0.0062796
0.0057657
0.00604879
0.0077039
0.00580016
0.00557758
0.00646501
0.00684042
0.00660944
0.00628578
0.00611852
0.00570942
0.00593765
0.00588481
0.00643643
0.00625719
0.00615478
0.00603365
0.00585446
0.0072038
0.00609669
0.00638976
0.0064041
0.00605653
0.00670843
0.00592197
0.00565107
0.00663341
0.00624872
0.00537445
0.00538985
0.00654208
0.00646891
0.00664343
0.00603402
0.00626626
0.00636618
0.00596796
0.00751081
0.00630804
0.00532038
0.00616584
0.0065295
0.00549538
0.00604873
0.00647154
0.00571666
0.00642302
0.0067529
0.00581434
0.0059559
0.00657758
0.0068921
0.00602752
0.00620716
0.00710081
0.00589214
0.00585751
0.00551784
0.00719636
0.00468328
0.00621498
0.00760445
0.00666983
0.00550692
0.00656788
0.00668203
0.00727495
0.00615393
0.00630662
0.00637317
0.006719
0.0060194
0.00643118
0.00571213
0.00677994
0.00659983
0.00691758
0.00568666
0.00729243
0.00692453
0.00663713
0.00678871
0.00617052
0.00684386
0.00577771
0.00606214
0.00591717
0.00632373
0.00613994
0.00714708
0.00637809
0.00567334
0.00634987
0.00569028
0.00708911
0.00658305
0.00588114
0.00713333
0.00614429
0.0053138
0.00690747
0.00585222
0.00675876
0.00700977
0.00600342
0.00750502
0.00563899
0.00638996
0.00669002
0.00549829
0.00707017
0.00551688
0.00621258
0.00634812
0.00637546
0.00694353
0.00618806
0.00562355
0.00557388
0.00683891
0.00561572
0.00616515
0.00666611
0.0060434
0.00740245
0.00616765
0.0052874
0.0061898
0.00713333
0.00663667
0.00637857
0.00653985
0.00716022
0.00680815
0.00664214
0.00656879
0.00668091
0.00586135
0.00702148
0.00631985
0.00687238
0.00689052
0.00560925
0.00762147
0.00608249
0.00574683
0.00689139
0.00657254
0.00582102
0.00616468
0.0060216
0.00636487
0.00655171
0.00612185
0.00611713
0.00636008
0.00587817
0.00676677
0.00636967
0.00689791
0.00626808
0.00654156
0.005677
0.00660061
0.00496604
0.00576375
0.00607072
0.00660845
0.0117919
0.00695204
0.00741351
0.00726687
0.00594473
0.00703839
0.00681541
0.0060008
0.00676768
0.00623389
0.00720642
0.00663228
0.00615753
0.00558529
0.00556271
0.00635433
0.00708275
0.00584262
0.00726856
0.0058467
0.00693591
0.00604137
0.00622971
0.00615339
0.0055705
0.00546239
0.00602597
0.00693027
0.00769628
0.00639933
0.00618143
0.00618955
0.00582236
0.00612045
0.00652708
0.00698478
0.00618693
0.00600882
0.00647378
0.00670483
0.00613111
0.00608258
0.00668237
0.00643356
0.00718386
0.00638193
0.00632848
0.00575129
0.00721069
0.00615927
0.00718524
0.00651981
0.00660583
0.00637887
0.00651929
0.00587467
0.00655528
0.00595826
0.00677302
0.00698602
0.00624142
0.00624769
0.00666481
0.00707202
0.00581565
0.00590293
0.00642884
0.00649444
0.00597377
0.00712289
0.00626025
0.007254
0.00584841
0.00700864
0.00593773
0.00617061
0.0068868
0.00537013
0.0064652
0.00626625
0.00621751
0.00609006
0.0062164
0.00620892
0.00597765
0.00604111
0.0064795
0.0071657
0.00696032
0.00650671
0.00668618
0.00668995
0.00607967
0.00622268
0.00598369
0.00617598
0.00711037
0.00668486
0.00569676
0.00629093
0.00608486
0.00752874
0.00599377
0.00664433
0.00690956
0.00621804
0.00720654
0.00689455
0.00661027
0.00561957
0.00538793
0.00654546
0.00656916
0.00600188
0.00596146
0.00607655
0.00651257
0.00684032
0.00557749
0.00505416
0.00666601
0.00644245
0.0074958
0.00689738
0.0056177
0.00582013
0.0069444
0.00605074
0.00590997
0.00650833
0.00660211
0.00669961
0.00686222
0.00707025
0.00717233
0.00613743
0.00630461
0.00601458
0.00675876
0.00701497
0.00670182
0.00672555
0.00643034
0.00660846
0.00657922
0.00590833
0.00710873
0.0066836
0.00653354
0.00700985
0.00552452
0.00600025
0.00659509
0.00602466
0.00620247
0.00575986
0.00622231
0.00613917
0.00571243
0.00599666
0.00811013
0.00622504
0.00675096
0.00635551
0.00637386
0.00637138
0.00646754
0.00546218
0.00644657
0.00735009
0.00610046
0.00610243
0.00662608
0.0062109
0.0056248
0.006027
0.00651129
0.00640786
0.00546702
0.00641949
0.00641857
0.00628339
0.00620987
0.0065248
0.00589827
0.00666041
0.00522598
0.00566171
0.00710384
0.00664181
0.00554829
0.00633572
0.0066115
0.00538652
0.00622055
0.00600325
0.00591162
0.00664354
0.00716317
0.00554263
0.0065895
0.0061798
0.00546255
0.0057446