# vtk DataFile Version 1.0
Electron Density - Current Sheet 
ASCII
DATASET STRUCTURED_POINTS
DIMENSIONS 256 128 1
ORIGIN 0 0 0
SPACING 0.15625 0.15625 1
POINT_DATA 32768
SCALARS rhoe float
LOOKUP_TABLE default
-7.37325e-18
-1.33792e-17
-1.40884e-17
-1.25913e-17
-1.40293e-17
-1.32647e-17
-1.42394e-17
-1.34368e-17
-1.38027e-17
-1.36817e-17
-1.43274e-17
-1.41506e-17
-1.28799e-17
-1.22792e-17
-1.37917e-17
-1.4839e-17
-1.38496e-17
-1.36637e-17
-1.3444e-17
-1.47976e-17
-1.4698e-17
-1.5117e-17
-1.4374e-17
-1.49273e-17
-1.49289e-17
-1.27681e-17
-1.33408e-17
-1.37243e-17
-1.33719e-17
-1.36879e-17
-1.36617e-17
-1.45174e-17
-1.33415e-17
-1.37315e-17
-1.45692e-17
-1.12687e-17
-1.39887e-17
-1.4865e-17
-1.4047e-17
-1.27955e-17
-1.32376e-17
-1.22119e-17
-1.42231e-17
-1.33338e-17
-1.1579e-17
-1.22427e-17
-1.36174e-17
-1.31154e-17
-1.38701e-17
-1.42346e-17
-1.28029e-17
-1.44216e-17
-1.26615e-17
-1.28017e-17
-1.36102e-17
-1.48426e-17
-1.35087e-17
-1.24647e-17
-1.20529e-17
-1.29696e-17
-1.25634e-17
-1.33823e-17
-1.49803e-17
-1.39535e-17
-1.3515e-17
-1.23478e-17
-1.27885e-17
-1.32882e-17
-1.37997e-17
-1.35154e-17
-1.4136e-17
-1.42334e-17
-1.18452e-17
-1.30527e-17
-1.32584e-17
-1.4043e-17
-1.39192e-17
-1.32689e-17
-1.22752e-17
-1.39032e-17
-1.27094e-17
-1.39929e-17
-1.36852e-17
-1.23297e-17
-1.49261e-17
-1.41671e-17
-1.25223e-17
-1.46534e-17
-1.39054e-17
-1.39901e-17
-1.3086e-17
-1.30773e-17
-1.23284e-17
-1.32748e-17
-1.55425e-17
-1.41092e-17
-1.39917e-17
-1.30821e-17
-1.41812e-17
-1.39038e-17
-1.19484e-17
-1.28332e-17
-1.30847e-17
-1.34025e-17
-1.46116e-17
-1.36083e-17
-1.2724e-17
-1.29876e-17
-1.41591e-17
-1.37691e-17
-1.32479e-17
-1.33066e-17
-1.41646e-17
-1.17582e-17
-1.38321e-17
-1.41704e-17
-1.4285e-17
-1.39469e-17
-1.31917e-17
-1.4365e-17
-1.35355e-17
-1.29921e-17
-1.22478e-17
-1.28857e-17
-1.34871e-17
-1.32214e-17
-1.39698e-17
-1.32923e-17
-1.29425e-17
-1.39716e-17
-1.3256e-17
-1.19601e-17
-1.64176e-17
-1.41137e-17
-1.24503e-17
-1.5033e-17
-1.33107e-17
-1.32413e-17
-1.36319e-17
-1.42917e-17
-1.25196e-17
-1.46925e-17
-1.3395e-17
-1.21793e-17
-1.42127e-17
-1.29949e-17
-1.24804e-17
-1.41773e-17
-1.35713e-17
-1.37701e-17
-1.37757e-17
-1.25809e-17
-1.37254e-17
-1.32234e-17
-1.3988e-17
-1.39129e-17
-1.45511e-17
-1.44885e-17
-1.34282e-17
-1.46137e-17
-1.24888e-17
-1.30276e-17
-1.46221e-17
-1.35814e-17
-1.44038e-17
-1.38109e-17
-1.35907e-17
-1.34667e-17
-1.35172e-17
-1.36622e-17
-1.36032e-17
-1.31573e-17
-1.51929e-17
-1.34342e-17
-1.55148e-17
-1.41906e-17
-1.30438e-17
-1.28841e-17
-1.38026e-17
-1.39707e-17
-1.28144e-17
-1.37325e-17
-1.49282e-17
-1.42983e-17
-1.35683e-17
-1.17136e-17
-1.40121e-17
-1.33767e-17
-1.46577e-17
-1.34878e-17
-1.48177e-17
-1.35395e-17
-1.17441e-17
-1.4724e-17
-1.40155e-17
-1.33053e-17
-1.30175e-17
-1.23246e-17
-1.36439e-17
-1.3419e-17
-1.34881e-17
-1.43104e-17
-1.25856e-17
-1.3298e-17
-1.19982e-17
-1.41554e-17
-1.35442e-17
-1.30246e-17
-1.28438e-17
-1.25039e-17
-1.32065e-17
-1.38508e-17
-1.36751e-17
-1.31376e-17
-1.31893e-17
-1.27203e-17
-1.26295e-17
-1.65912e-17
-1.38712e-17
-1.40734e-17
-1.34186e-17
-1.3245e-17
-1.36669e-17
-1.33623e-17
-1.32818e-17
-1.35474e-17
-1.33411e-17
-1.26554e-17
-1.27655e-17
-1.41787e-17
-1.41812e-17
-1.37173e-17
-1.30099e-17
-1.62826e-17
-1.2733e-17
-1.29278e-17
-1.33935e-17
-1.40773e-17
-1.29364e-17
-1.23935e-17
-1.31847e-17
-1.47104e-17
-1.36015e-17
-1.41188e-17
-1.36909e-17
-1.50622e-17
-1.33429e-17
-1.3556e-17
-1.54142e-17
-1.29969e-17
-1.47743e-17
-1.27661e-17
-1.3083e-17
-1.27565e-17
-1.3215e-17
-1.32755e-17
-1.61935e-17
-2.30655e-17
-2.34653e-17
-2.2604e-17
-2.21079e-17
-2.44364e-17
-2.23632e-17
-2.27784e-17
-2.31776e-17
-2.21933e-17
-2.25931e-17
-2.40177e-17
-2.42963e-17
-2.16374e-17
-2.15537e-17
-2.30973e-17
-2.37314e-17
-2.43397e-17
-2.37545e-17
-2.24656e-17
-2.27947e-17
-2.25342e-17
-2.12138e-17
-2.30452e-17
-2.30939e-17
-2.34709e-17
-2.30739e-17
-2.20769e-17
-2.30156e-17
-2.37354e-17
-2.43342e-17
-2.10038e-17
-2.25619e-17
-2.22563e-17
-2.38508e-17
-2.257e-17
-2.41523e-17
-2.25069e-17
-2.39513e-17
-2.22772e-17
-2.31174e-17
-2.31276e-17
-2.47272e-17
-2.42303e-17
-2.3006e-17
-2.29676e-17
-2.42091e-17
-2.39555e-17
-2.10934e-17
-2.35659e-17
-2.28455e-17
-2.31722e-17
-2.25576e-17
-2.37971e-17
-2.09829e-17
-2.23926e-17
-2.25605e-17
-2.28194e-17
-2.3001e-17
-2.28597e-17
-2.22369e-17
-2.42409e-17
-2.28781e-17
-2.2099e-17
-2.35492e-17
-2.31208e-17
-2.44934e-17
-2.30079e-17
-2.17241e-17
-2.33109e-17
-2.44889e-17
-2.37685e-17
-2.21853e-17
-2.41695e-17
-2.34464e-17
-2.24974e-17
-2.13239e-17
-2.23531e-17
-2.13695e-17
-2.32674e-17
-2.43444e-17
-2.34902e-17
-2.30716e-17
-2.18548e-17
-2.11257e-17
-2.33549e-17
-2.38663e-17
-2.39895e-17
-2.17679e-17
-2.18474e-17
-2.39523e-17
-2.27934e-17
-2.14413e-17
-2.18272e-17
-2.2279e-17
-2.3647e-17
-2.31293e-17
-2.30591e-17
-2.26163e-17
-2.37892e-17
-2.23977e-17
-2.3652e-17
-2.33182e-17
-2.27383e-17
-2.31665e-17
-2.23761e-17
-2.24881e-17
-2.38522e-17
-2.45617e-17
-2.22864e-17
-2.33888e-17
-2.18321e-17
-2.40882e-17
-2.2762e-17
-2.18596e-17
-2.34086e-17
-2.26369e-17
-2.24385e-17
-2.20548e-17
-2.37428e-17
-2.32875e-17
-2.32315e-17
-2.45462e-17
-2.04623e-17
-2.33451e-17
-2.40867e-17
-2.5652e-17
-2.30394e-17
-2.21453e-17
-2.25772e-17
-2.28645e-17
-2.27696e-17
-2.38665e-17
-2.28361e-17
-2.01882e-17
-2.34862e-17
-2.26791e-17
-2.3613e-17
-2.27059e-17
-2.31787e-17
-2.10918e-17
-2.20916e-17
-2.30707e-17
-2.37561e-17
-2.55971e-17
-2.36016e-17
-2.06599e-17
-2.28177e-17
-2.2665e-17
-2.22325e-17
-2.30805e-17
-2.36284e-17
-2.41273e-17
-2.45301e-17
-2.32349e-17
-2.42757e-17
-2.44895e-17
-2.31411e-17
-2.22079e-17
-2.28486e-17
-2.13866e-17
-2.42415e-17
-2.41066e-17
-2.21238e-17
-2.45112e-17
-2.37452e-17
-2.19611e-17
-2.33556e-17
-2.18408e-17
-2.23776e-17
-2.39043e-17
-2.34476e-17
-2.34053e-17
-2.21466e-17
-2.29028e-17
-2.41209e-17
-2.27697e-17
-2.33664e-17
-2.29328e-17
-2.24779e-17
-2.26619e-17
-2.31341e-17
-2.15468e-17
-2.30655e-17
-2.30464e-17
-2.14534e-17
-2.17011e-17
-2.16548e-17
-2.25288e-17
-2.31451e-17
-2.44782e-17
-2.23709e-17
-2.25188e-17
-2.32338e-17
-2.2848e-17
-2.39133e-17
-2.24953e-17
-2.38287e-17
-2.26029e-17
-2.40922e-17
-2.22372e-17
-2.39808e-17
-2.34311e-17
-2.18664e-17
-2.18784e-17
-2.40244e-17
-2.33583e-17
-2.38779e-17
-2.4609e-17
-2.3861e-17
-2.23915e-17
-2.47162e-17
-2.14065e-17
-2.28299e-17
-2.33398e-17
-2.26828e-17
-2.29308e-17
-2.23443e-17
-2.29236e-17
-2.40079e-17
-2.15695e-17
-2.28593e-17
-2.36796e-17
-2.29739e-17
-2.13266e-17
-2.28273e-17
-2.3756e-17
-2.29167e-17
-2.21662e-17
-2.32359e-17
-2.03756e-17
-2.31806e-17
-2.16969e-17
-2.40527e-17
-2.32522e-17
-2.2451e-17
-2.20523e-17
-2.30852e-17
-2.38306e-17
-2.29271e-17
-2.28417e-17
-2.3095e-17
-2.19069e-17
-2.25949e-17
-2.11531e-17
-2.27584e-17
-2.11946e-17
-2.24456e-17
-2.52373e-17
-2.24666e-17
-2.2358e-17
-2.30692e-17
-2.36165e-17
-2.27654e-17
-2.3054e-17
-2.28659e-17
-3.55641e-17
-4.04481e-17
-4.61828e-17
-4.19665e-17
-4.36966e-17
-4.48934e-17
-4.0428e-17
-4.00069e-17
-4.22996e-17
-4.21424e-17
-3.92003e-17
-4.42879e-17
-4.50932e-17
-4.26401e-17
-4.1008e-17
-4.09082e-17
-4.29774e-17
-4.18871e-17
-4.40448e-17
-3.84887e-17
-4.0389e-17
-4.18939e-17
-4.21665e-17
-4.32103e-17
-4.20926e-17
-3.98266e-17
-4.25014e-17
-3.96143e-17
-4.17309e-17
-4.24155e-17
-4.02352e-17
-4.00805e-17
-4.20568e-17
-4.28897e-17
-4.30354e-17
-4.29981e-17
-4.35563e-17
-4.34373e-17
-4.44096e-17
-4.02716e-17
-4.08365e-17
-4.29464e-17
-4.46756e-17
-3.9996e-17
-4.2011e-17
-4.27663e-17
-4.45155e-17
-4.24529e-17
-4.13065e-17
-4.14439e-17
-4.10666e-17
-4.12812e-17
-4.33438e-17
-4.14897e-17
-4.03247e-17
-4.19631e-17
-4.00698e-17
-4.55604e-17
-4.31113e-17
-4.39641e-17
-4.35116e-17
-4.38601e-17
-4.15445e-17
-4.11876e-17
-4.00604e-17
-4.40338e-17
-4.12568e-17
-4.56272e-17
-4.19355e-17
-4.15991e-17
-4.06565e-17
-4.26523e-17
-4.28428e-17
-4.36744e-17
-4.38702e-17
-4.37757e-17
-4.39528e-17
-4.31398e-17
-4.41807e-17
-4.51935e-17
-4.18907e-17
-3.94547e-17
-3.95137e-17
-4.41875e-17
-4.11016e-17
-4.38044e-17
-4.25075e-17
-4.08326e-17
-4.06366e-17
-4.1641e-17
-4.44644e-17
-4.3016e-17
-4.3657e-17
-4.32149e-17
-4.14365e-17
-4.35085e-17
-4.30857e-17
-4.02673e-17
-4.12285e-17
-4.11033e-17
-3.97373e-17
-4.12493e-17
-4.44137e-17
-4.06467e-17
-4.334e-17
-3.96477e-17
-4.21924e-17
-4.02503e-17
-4.39292e-17
-4.21625e-17
-4.35103e-17
-4.15346e-17
-4.27207e-17
-4.1396e-17
-4.1536e-17
-4.28927e-17
-4.41106e-17
-4.16883e-17
-4.05849e-17
-4.19764e-17
-4.39817e-17
-4.12949e-17
-4.2314e-17
-4.25201e-17
-4.11909e-17
-4.12279e-17
-4.4777e-17
-4.03327e-17
-3.98758e-17
-4.2976e-17
-4.43212e-17
-4.15641e-17
-4.11635e-17
-4.40209e-17
-4.28706e-17
-4.0893e-17
-4.02344e-17
-4.30277e-17
-4.2177e-17
-4.11631e-17
-4.23471e-17
-4.05788e-17
-4.37581e-17
-3.91359e-17
-3.97349e-17
-4.33169e-17
-4.22953e-17
-4.47937e-17
-4.15461e-17
-3.99843e-17
-4.30293e-17
-4.08601e-17
-4.01578e-17
-4.21058e-17
-4.00075e-17
-4.04715e-17
-4.21227e-17
-4.38696e-17
-4.49143e-17
-4.53453e-17
-4.24052e-17
-4.41663e-17
-4.08879e-17
-3.82916e-17
-4.13344e-17
-4.26794e-17
-4.25314e-17
-4.19992e-17
-4.07869e-17
-4.09393e-17
-4.29495e-17
-4.26059e-17
-4.35107e-17
-4.28814e-17
-4.12391e-17
-4.29968e-17
-4.22947e-17
-4.27647e-17
-4.35838e-17
-4.0807e-17
-4.04212e-17
-4.55595e-17
-4.15875e-17
-4.23714e-17
-4.63066e-17
-4.48697e-17
-4.09695e-17
-4.04134e-17
-4.29203e-17
-4.09689e-17
-4.10743e-17
-4.13004e-17
-4.35042e-17
-4.34512e-17
-4.24164e-17
-4.29853e-17
-4.60383e-17
-4.06179e-17
-3.69265e-17
-4.33997e-17
-4.27443e-17
-4.15112e-17
-4.14207e-17
-4.4694e-17
-4.61944e-17
-3.83537e-17
-4.36407e-17
-4.50465e-17
-4.42092e-17
-3.97711e-17
-4.09909e-17
-4.00739e-17
-4.19755e-17
-4.42439e-17
-4.26532e-17
-4.07299e-17
-4.28868e-17
-4.21621e-17
-4.15954e-17
-4.35137e-17
-4.09717e-17
-4.42418e-17
-4.46773e-17
-4.27023e-17
-3.98135e-17
-4.27605e-17
-4.35343e-17
-4.2873e-17
-4.37377e-17
-4.36742e-17
-4.04414e-17
-4.4223e-17
-4.02194e-17
-4.46757e-17
-4.2581e-17
-4.14468e-17
-4.3552e-17
-4.42181e-17
-4.28283e-17
-4.28896e-17
-4.274e-17
-4.30365e-17
-4.01921e-17
-4.38388e-17
-4.43267e-17
-4.33699e-17
-4.18727e-17
-4.28885e-17
-4.19313e-17
-4.22836e-17
-4.38369e-17
-4.42683e-17
-4.17611e-17
-4.65288e-17
-4.22724e-17
-4.65629e-17
-6.27364e-17
-7.92372e-17
-8.01025e-17
-7.73985e-17
-7.65066e-17
-7.57469e-17
-7.80742e-17
-7.87737e-17
-8.23186e-17
-7.53794e-17
-7.98536e-17
-8.23203e-17
-8.23908e-17
-7.44911e-17
-8.19746e-17
-7.9865e-17
-7.65193e-17
-8.26173e-17
-7.93469e-17
-7.44533e-17
-7.95425e-17
-7.77325e-17
-8.38512e-17
-8.16748e-17
-7.76049e-17
-8.00341e-17
-7.84013e-17
-8.11855e-17
-8.18038e-17
-8.379e-17
-8.40399e-17
-7.8308e-17
-8.1715e-17
-7.94575e-17
-8.0834e-17
-8.00033e-17
-8.76279e-17
-8.16082e-17
-7.70387e-17
-8.20625e-17
-8.30773e-17
-7.50638e-17
-7.64523e-17
-7.78125e-17
-7.63579e-17
-8.12358e-17
-7.87908e-17
-8.07246e-17
-7.97541e-17
-8.04542e-17
-7.82992e-17
-7.99056e-17
-8.31493e-17
-7.76143e-17
-7.91989e-17
-8.48517e-17
-8.1026e-17
-7.91497e-17
-7.87697e-17
-7.98464e-17
-7.7829e-17
-7.95288e-17
-7.49974e-17
-8.2143e-17
-7.35575e-17
-7.63266e-17
-8.11668e-17
-8.26902e-17
-7.65192e-17
-8.27367e-17
-7.64089e-17
-8.12224e-17
-7.96902e-17
-7.99952e-17
-7.40376e-17
-7.84108e-17
-7.81768e-17
-8.02669e-17
-8.41849e-17
-7.92597e-17
-7.48228e-17
-8.24848e-17
-7.89065e-17
-7.90217e-17
-7.34697e-17
-7.83261e-17
-7.78779e-17
-7.99125e-17
-7.93597e-17
-7.97292e-17
-8.08989e-17
-7.94664e-17
-7.79219e-17
-8.31635e-17
-7.64291e-17
-7.48087e-17
-7.93543e-17
-8.23584e-17
-8.22974e-17
-8.04755e-17
-7.8916e-17
-7.53431e-17
-7.81323e-17
-7.93625e-17
-7.78929e-17
-7.88069e-17
-8.45436e-17
-7.90249e-17
-7.64692e-17
-8.01845e-17
-7.63858e-17
-7.92057e-17
-8.54213e-17
-7.55628e-17
-8.679e-17
-8.47381e-17
-7.53663e-17
-7.93742e-17
-8.26192e-17
-8.18872e-17
-8.3265e-17
-7.74749e-17
-7.90908e-17
-7.64579e-17
-7.31025e-17
-7.7804e-17
-8.19193e-17
-8.27632e-17
-7.90371e-17
-7.9216e-17
-8.12063e-17
-7.83917e-17
-8.07316e-17
-7.86296e-17
-8.39952e-17
-8.49144e-17
-7.53973e-17
-7.27971e-17
-8.02533e-17
-7.93788e-17
-7.79097e-17
-7.94414e-17
-8.554e-17
-8.03123e-17
-7.89053e-17
-8.16348e-17
-7.62107e-17
-7.93151e-17
-7.94584e-17
-7.38734e-17
-7.89855e-17
-7.74693e-17
-7.68573e-17
-7.90786e-17
-7.85255e-17
-7.78171e-17
-7.55465e-17
-7.89232e-17
-8.02388e-17
-7.97346e-17
-7.49607e-17
-7.83293e-17
-7.33592e-17
-7.64712e-17
-8.68034e-17
-8.37939e-17
-8.01765e-17
-8.24086e-17
-7.475e-17
-8.06797e-17
-7.88646e-17
-8.36632e-17
-8.07252e-17
-7.68465e-17
-7.55507e-17
-7.67639e-17
-8.62351e-17
-7.95235e-17
-7.49574e-17
-8.68886e-17
-7.87232e-17
-7.89913e-17
-7.44902e-17
-8.30916e-17
-7.75464e-17
-8.21598e-17
-8.49898e-17
-8.12333e-17
-8.3965e-17
-7.63069e-17
-7.86669e-17
-8.38687e-17
-7.55386e-17
-7.83418e-17
-8.42471e-17
-8.03629e-17
-7.83486e-17
-7.79451e-17
-7.72945e-17
-7.60298e-17
-8.30998e-17
-8.11043e-17
-7.89185e-17
-7.85466e-17
-8.01645e-17
-7.26226e-17
-7.89842e-17
-8.25751e-17
-7.52765e-17
-8.06319e-17
-8.21579e-17
-8.27505e-17
-8.16019e-17
-7.8142e-17
-7.98961e-17
-8.0111e-17
-8.06087e-17
-7.87804e-17
-7.69913e-17
-8.42281e-17
-7.5612e-17
-7.51776e-17
-7.86086e-17
-7.89571e-17
-7.9175e-17
-8.12392e-17
-8.08474e-17
-7.61679e-17
-8.4304e-17
-8.29958e-17
-7.23007e-17
-7.62951e-17
-7.85031e-17
-7.84041e-17
-7.95685e-17
-7.25371e-17
-7.91175e-17
-7.88757e-17
-8.27879e-17
-8.31427e-17
-7.86704e-17
-7.55308e-17
-7.21998e-17
-8.33337e-17
-7.85416e-17
-7.87094e-17
-8.34226e-17
-8.40584e-17
-8.17658e-17
-7.54301e-17
-7.85323e-17
-8.20562e-17
-7.84488e-17
-7.76686e-17
-8.23669e-17
-7.42404e-17
-1.17638e-16
-1.67133e-16
-1.41082e-16
-1.4401e-16
-1.54547e-16
-1.56997e-16
-1.51843e-16
-1.5646e-16
-1.49953e-16
-1.48242e-16
-1.45139e-16
-1.58945e-16
-1.60029e-16
-1.40071e-16
-1.49116e-16
-1.55063e-16
-1.49878e-16
-1.57988e-16
-1.4518e-16
-1.56207e-16
-1.53719e-16
-1.49433e-16
-1.49665e-16
-1.41688e-16
-1.44867e-16
-1.56719e-16
-1.50746e-16
-1.38348e-16
-1.51033e-16
-1.55999e-16
-1.39819e-16
-1.49627e-16
-1.48186e-16
-1.43087e-16
-1.41467e-16
-1.50248e-16
-1.41691e-16
-1.50977e-16
-1.44662e-16
-1.37243e-16
-1.50692e-16
-1.45313e-16
-1.50776e-16
-1.58716e-16
-1.40904e-16
-1.65723e-16
-1.52927e-16
-1.50214e-16
-1.47139e-16
-1.56826e-16
-1.43069e-16
-1.56881e-16
-1.46851e-16
-1.43308e-16
-1.50068e-16
-1.46807e-16
-1.4671e-16
-1.55073e-16
-1.58684e-16
-1.39342e-16
-1.55776e-16
-1.5349e-16
-1.48085e-16
-1.52921e-16
-1.42648e-16
-1.46819e-16
-1.45437e-16
-1.52352e-16
-1.45622e-16
-1.51285e-16
-1.51432e-16
-1.45006e-16
-1.51786e-16
-1.4498e-16
-1.3988e-16
-1.49947e-16
-1.48928e-16
-1.45494e-16
-1.49826e-16
-1.52776e-16
-1.4696e-16
-1.49496e-16
-1.49392e-16
-1.51498e-16
-1.49868e-16
-1.46313e-16
-1.4029e-16
-1.55948e-16
-1.56007e-16
-1.49664e-16
-1.52423e-16
-1.52804e-16
-1.44743e-16
-1.43998e-16
-1.43517e-16
-1.59387e-16
-1.58564e-16
-1.45749e-16
-1.47836e-16
-1.59951e-16
-1.498e-16
-1.41843e-16
-1.551e-16
-1.4539e-16
-1.45763e-16
-1.50916e-16
-1.49437e-16
-1.39241e-16
-1.53617e-16
-1.45961e-16
-1.49887e-16
-1.58484e-16
-1.56068e-16
-1.41821e-16
-1.50521e-16
-1.48233e-16
-1.47712e-16
-1.51796e-16
-1.48445e-16
-1.44578e-16
-1.5649e-16
-1.50369e-16
-1.39767e-16
-1.53245e-16
-1.49377e-16
-1.4772e-16
-1.47183e-16
-1.45567e-16
-1.46797e-16
-1.46548e-16
-1.46407e-16
-1.65827e-16
-1.30285e-16
-1.50501e-16
-1.49769e-16
-1.558e-16
-1.51095e-16
-1.48659e-16
-1.48208e-16
-1.54777e-16
-1.45061e-16
-1.50785e-16
-1.48705e-16
-1.54588e-16
-1.57516e-16
-1.59205e-16
-1.41882e-16
-1.49661e-16
-1.59029e-16
-1.4584e-16
-1.51772e-16
-1.46209e-16
-1.54062e-16
-1.47116e-16
-1.4486e-16
-1.53831e-16
-1.57471e-16
-1.54068e-16
-1.39903e-16
-1.56235e-16
-1.30138e-16
-1.61068e-16
-1.61419e-16
-1.49011e-16
-1.53696e-16
-1.50195e-16
-1.55907e-16
-1.35831e-16
-1.51527e-16
-1.58538e-16
-1.51081e-16
-1.45606e-16
-1.46424e-16
-1.5082e-16
-1.48598e-16
-1.53615e-16
-1.5722e-16
-1.41682e-16
-1.40963e-16
-1.53125e-16
-1.57835e-16
-1.51634e-16
-1.5692e-16
-1.46727e-16
-1.58127e-16
-1.39317e-16
-1.53508e-16
-1.54718e-16
-1.37294e-16
-1.39216e-16
-1.48676e-16
-1.50166e-16
-1.43069e-16
-1.4553e-16
-1.4742e-16
-1.43548e-16
-1.57574e-16
-1.40378e-16
-1.50415e-16
-1.52702e-16
-1.49555e-16
-1.49482e-16
-1.58585e-16
-1.60839e-16
-1.52269e-16
-1.39525e-16
-1.51558e-16
-1.41254e-16
-1.42839e-16
-1.45925e-16
-1.53537e-16
-1.5076e-16
-1.52835e-16
-1.56649e-16
-1.54932e-16
-1.4425e-16
-1.40844e-16
-1.42067e-16
-1.51071e-16
-1.40449e-16
-1.43273e-16
-1.50074e-16
-1.43713e-16
-1.49654e-16
-1.48924e-16
-1.37048e-16
-1.48042e-16
-1.53159e-16
-1.48156e-16
-1.57844e-16
-1.47916e-16
-1.45311e-16
-1.44359e-16
-1.42452e-16
-1.43745e-16
-1.57607e-16
-1.52031e-16
-1.5495e-16
-1.288e-16
-1.57687e-16
-1.51318e-16
-1.62566e-16
-1.50947e-16
-1.42662e-16
-1.53312e-16
-1.48245e-16
-1.42627e-16
-1.49416e-16
-1.54127e-16
-1.60412e-16
-1.48451e-16
-1.35985e-16
-1.43126e-16
-1.5564e-16
-1.54353e-16
-1.38643e-16
-2.05351e-16
-2.64042e-16
-2.67964e-16
-2.83886e-16
-2.72174e-16
-2.77545e-16
-2.67289e-16
-2.67921e-16
-2.85395e-16
-2.80507e-16
-2.70266e-16
-2.72507e-16
-2.6218e-16
-2.68648e-16
-2.91291e-16
-2.7565e-16
-2.78525e-16
-2.86228e-16
-2.52174e-16
-2.84567e-16
-2.82358e-16
-2.70479e-16
-2.72401e-16
-2.75435e-16
-2.82632e-16
-2.81063e-16
-2.74531e-16
-2.72018e-16
-2.76311e-16
-2.68581e-16
-2.87322e-16
-2.93243e-16
-2.82428e-16
-2.71361e-16
-2.845e-16
-2.72921e-16
-2.958e-16
-2.68715e-16
-2.78592e-16
-2.6428e-16
-2.68307e-16
-2.85987e-16
-2.90397e-16
-2.68074e-16
-2.76237e-16
-2.68631e-16
-2.75108e-16
-2.64531e-16
-2.78696e-16
-2.95491e-16
-2.683e-16
-2.6819e-16
-2.83881e-16
-2.89762e-16
-2.68723e-16
-2.76177e-16
-2.77582e-16
-2.74313e-16
-2.71889e-16
-2.75517e-16
-2.82884e-16
-2.81634e-16
-2.73748e-16
-2.72459e-16
-2.94003e-16
-2.8267e-16
-2.60358e-16
-2.91382e-16
-2.69985e-16
-2.53312e-16
-2.58687e-16
-2.62474e-16
-2.8686e-16
-2.82109e-16
-2.79858e-16
-2.88046e-16
-2.75256e-16
-2.77521e-16
-2.87806e-16
-2.86309e-16
-2.65979e-16
-2.67035e-16
-2.86324e-16
-2.97899e-16
-2.97648e-16
-2.78288e-16
-2.72032e-16
-2.58015e-16
-2.85908e-16
-2.68763e-16
-2.66952e-16
-2.76959e-16
-2.99825e-16
-2.66747e-16
-2.66495e-16
-2.68406e-16
-2.78538e-16
-2.94556e-16
-2.61953e-16
-2.73578e-16
-3.04123e-16
-2.59385e-16
-2.85124e-16
-2.89002e-16
-2.62198e-16
-2.66865e-16
-2.76722e-16
-2.8806e-16
-3.11426e-16
-2.53316e-16
-2.76451e-16
-2.71834e-16
-2.78579e-16
-2.73415e-16
-2.85433e-16
-2.70366e-16
-2.64843e-16
-2.73332e-16
-2.77106e-16
-2.77283e-16
-2.8525e-16
-2.84458e-16
-2.83993e-16
-2.76829e-16
-2.77816e-16
-2.59868e-16
-2.74934e-16
-2.96365e-16
-2.97617e-16
-2.65531e-16
-2.75967e-16
-2.84465e-16
-2.45301e-16
-2.65795e-16
-2.91937e-16
-2.58516e-16
-2.73385e-16
-2.9304e-16
-2.6772e-16
-2.76023e-16
-2.77617e-16
-2.45754e-16
-2.87331e-16
-2.94274e-16
-2.72876e-16
-2.68429e-16
-2.73457e-16
-2.77493e-16
-2.63315e-16
-2.82545e-16
-2.87942e-16
-2.68502e-16
-2.91766e-16
-2.52602e-16
-2.84425e-16
-2.84756e-16
-2.97578e-16
-2.78809e-16
-2.75751e-16
-2.75897e-16
-2.65272e-16
-2.8928e-16
-2.74148e-16
-2.78539e-16
-2.68393e-16
-2.639e-16
-2.89454e-16
-2.71684e-16
-2.77126e-16
-2.8242e-16
-2.91632e-16
-2.53241e-16
-2.84294e-16
-2.72424e-16
-2.87955e-16
-2.87935e-16
-2.59337e-16
-2.61945e-16
-2.52842e-16
-2.72841e-16
-2.87716e-16
-2.66269e-16
-2.58101e-16
-2.60832e-16
-2.96762e-16
-2.70961e-16
-2.74073e-16
-2.62747e-16
-2.80139e-16
-2.88878e-16
-2.76284e-16
-2.9007e-16
-2.78316e-16
-2.5578e-16
-2.72622e-16
-2.72045e-16
-2.9329e-16
-2.60007e-16
-2.70327e-16
-2.68546e-16
-2.72117e-16
-2.81045e-16
-2.64266e-16
-3.02661e-16
-2.94457e-16
-2.57863e-16
-2.8881e-16
-2.88668e-16
-2.7821e-16
-2.68209e-16
-2.71878e-16
-2.70251e-16
-2.72159e-16
-2.82685e-16
-2.81383e-16
-2.93348e-16
-2.89228e-16
-2.74918e-16
-2.84281e-16
-2.84133e-16
-2.77396e-16
-2.7382e-16
-2.86311e-16
-2.98905e-16
-2.82862e-16
-2.76994e-16
-2.83736e-16
-2.66563e-16
-2.7414e-16
-2.84401e-16
-2.83637e-16
-2.89093e-16
-2.89586e-16
-2.80718e-16
-2.76539e-16
-2.90953e-16
-2.80128e-16
-2.71492e-16
-2.67911e-16
-2.87917e-16
-2.75852e-16
-2.77309e-16
-2.98076e-16
-2.76229e-16
-2.57731e-16
-2.93761e-16
-2.83726e-16
-2.5673e-16
-2.77297e-16
-2.72946e-16
-2.79082e-16
-2.8529e-16
-2.89089e-16
-2.61588e-16
-2.94963e-16
-2.93778e-16
-4.38325e-16
-5.10072e-16
-5.19862e-16
-4.86702e-16
-5.37599e-16
-5.25534e-16
-4.98702e-16
-4.98342e-16
-4.77019e-16
-5.06711e-16
-5.06492e-16
-5.27775e-16
-5.35288e-16
-5.1465e-16
-5.05663e-16
-4.90129e-16
-5.08695e-16
-5.11589e-16
-4.67005e-16
-5.18096e-16
-4.96954e-16
-5.35419e-16
-4.89085e-16
-5.26363e-16
-5.17003e-16
-5.67716e-16
-5.58302e-16
-5.40636e-16
-4.86048e-16
-4.99296e-16
-5.24588e-16
-5.28793e-16
-5.02369e-16
-4.62582e-16
-5.24705e-16
-5.56224e-16
-5.429e-16
-5.50124e-16
-4.80495e-16
-5.23443e-16
-5.12516e-16
-5.39624e-16
-5.45648e-16
-4.93894e-16
-5.0439e-16
-5.58345e-16
-4.91644e-16
-4.81435e-16
-5.1387e-16
-5.17575e-16
-5.10909e-16
-5.05465e-16
-5.3669e-16
-5.09197e-16
-5.26924e-16
-5.12884e-16
-5.52825e-16
-5.22566e-16
-4.76394e-16
-5.36039e-16
-5.15798e-16
-5.13246e-16
-4.96056e-16
-5.49916e-16
-5.49399e-16
-5.27152e-16
-5.17532e-16
-5.01172e-16
-5.10085e-16
-5.55183e-16
-5.35754e-16
-5.40019e-16
-5.32395e-16
-4.88292e-16
-5.03704e-16
-5.10496e-16
-5.3265e-16
-4.80474e-16
-5.17867e-16
-4.7732e-16
-5.05391e-16
-4.88162e-16
-5.00317e-16
-5.9478e-16
-5.04437e-16
-5.14121e-16
-5.37609e-16
-5.40964e-16
-4.93436e-16
-5.17029e-16
-5.39345e-16
-4.91456e-16
-5.63237e-16
-5.18803e-16
-5.31394e-16
-4.93413e-16
-5.13081e-16
-5.21133e-16
-4.81762e-16
-4.9266e-16
-5.19141e-16
-5.04944e-16
-5.15321e-16
-5.56768e-16
-4.91215e-16
-5.55694e-16
-5.24694e-16
-5.29944e-16
-5.15583e-16
-4.97348e-16
-5.22002e-16
-5.05865e-16
-5.06169e-16
-4.96729e-16
-5.24593e-16
-5.58178e-16
-5.1605e-16
-5.52795e-16
-5.71033e-16
-4.87393e-16
-5.09829e-16
-5.10813e-16
-4.75584e-16
-4.83525e-16
-5.49091e-16
-5.17194e-16
-5.15066e-16
-5.38633e-16
-5.51752e-16
-5.15791e-16
-5.10559e-16
-5.23546e-16
-5.34889e-16
-5.33263e-16
-5.15781e-16
-4.79076e-16
-5.24879e-16
-5.12739e-16
-5.19554e-16
-5.32133e-16
-5.30849e-16
-4.86431e-16
-5.68854e-16
-5.09769e-16
-5.4458e-16
-5.40177e-16
-5.11935e-16
-4.96791e-16
-4.64745e-16
-5.4857e-16
-5.03172e-16
-5.22025e-16
-5.61772e-16
-5.08169e-16
-4.76611e-16
-5.42245e-16
-5.20462e-16
-4.91872e-16
-5.06608e-16
-4.88752e-16
-5.43162e-16
-5.32308e-16
-5.03516e-16
-5.13252e-16
-5.31351e-16
-4.91837e-16
-5.31611e-16
-4.97656e-16
-5.43898e-16
-4.91922e-16
-5.4018e-16
-5.40692e-16
-5.12536e-16
-5.23706e-16
-5.31161e-16
-4.89282e-16
-5.36687e-16
-5.69705e-16
-5.34058e-16
-5.08618e-16
-5.00605e-16
-5.52233e-16
-5.11399e-16
-5.22277e-16
-5.01203e-16
-5.1109e-16
-5.17374e-16
-5.09399e-16
-5.49898e-16
-5.19748e-16
-5.30648e-16
-5.06198e-16
-5.02694e-16
-5.32173e-16
-5.37958e-16
-5.06116e-16
-5.36845e-16
-5.02671e-16
-5.3825e-16
-5.13962e-16
-4.97398e-16
-5.19426e-16
-5.08148e-16
-5.47052e-16
-5.22181e-16
-5.08307e-16
-5.19735e-16
-5.37185e-16
-5.09664e-16
-5.14383e-16
-4.73804e-16
-5.32284e-16
-4.99654e-16
-4.82891e-16
-5.13617e-16
-4.90816e-16
-5.01881e-16
-5.17464e-16
-4.93867e-16
-5.13579e-16
-5.17826e-16
-4.93305e-16
-5.16997e-16
-4.96587e-16
-5.05561e-16
-4.81943e-16
-5.37514e-16
-5.31395e-16
-5.13328e-16
-4.86925e-16
-4.93095e-16
-5.17356e-16
-5.30178e-16
-5.19155e-16
-5.37017e-16
-4.8583e-16
-5.12735e-16
-5.11497e-16
-5.28041e-16
-5.05601e-16
-4.85139e-16
-4.95781e-16
-5.51673e-16
-4.89103e-16
-5.2294e-16
-5.21029e-16
-4.99375e-16
-5.01708e-16
-5.02272e-16
-4.57712e-16
-5.43713e-16
-5.53411e-16
-4.92321e-16
-4.89086e-16
-5.16061e-16
-5.35627e-16
-7.02339e-16
-9.67396e-16
-9.55413e-16
-9.56511e-16
-1.03128e-15
-9.7187e-16
-1.01515e-15
-9.22568e-16
-8.96825e-16
-9.93162e-16
-9.77488e-16
-1.00316e-15
-9.98384e-16
-9.90997e-16
-9.48678e-16
-9.70543e-16
-1.01112e-15
-9.84866e-16
-9.4857e-16
-9.60779e-16
-9.15737e-16
-1.00891e-15
-9.59778e-16
-1.00189e-15
-9.57878e-16
-1.0016e-15
-1.00649e-15
-9.81474e-16
-9.11434e-16
-9.83188e-16
-9.41049e-16
-1.03254e-15
-9.6993e-16
-9.34549e-16
-9.2058e-16
-9.84206e-16
-9.5298e-16
-9.66523e-16
-9.63833e-16
-9.77118e-16
-8.74068e-16
-9.77347e-16
-1.00697e-15
-1.02607e-15
-1.06024e-15
-1.01627e-15
-9.68953e-16
-9.16268e-16
-9.68963e-16
-9.94161e-16
-9.63415e-16
-9.92164e-16
-9.69877e-16
-9.13434e-16
-9.33721e-16
-9.85048e-16
-9.53903e-16
-9.69431e-16
-9.30046e-16
-1.00484e-15
-9.8024e-16
-9.78995e-16
-9.48153e-16
-9.67667e-16
-8.93166e-16
-9.09884e-16
-9.77551e-16
-9.73459e-16
-9.27456e-16
-9.29888e-16
-9.8969e-16
-9.80066e-16
-9.69723e-16
-9.53734e-16
-9.53344e-16
-9.75729e-16
-1.00824e-15
-9.8303e-16
-9.66731e-16
-9.85771e-16
-9.44285e-16
-9.99179e-16
-9.13066e-16
-9.67963e-16
-9.98807e-16
-9.07332e-16
-1.00247e-15
-9.2245e-16
-8.79582e-16
-9.5865e-16
-9.69274e-16
-9.5568e-16
-9.61789e-16
-9.13118e-16
-9.97238e-16
-9.8323e-16
-9.23127e-16
-1.02808e-15
-9.63854e-16
-9.51489e-16
-9.86157e-16
-9.05028e-16
-9.55375e-16
-9.60946e-16
-9.6681e-16
-1.04636e-15
-9.47891e-16
-9.3622e-16
-9.33562e-16
-9.80523e-16
-9.57426e-16
-9.4652e-16
-9.16343e-16
-9.88365e-16
-9.13305e-16
-9.49763e-16
-9.22184e-16
-9.3571e-16
-9.78633e-16
-9.14678e-16
-1.07874e-15
-1.0407e-15
-9.76275e-16
-9.56319e-16
-9.91918e-16
-9.9211e-16
-9.60059e-16
-9.67902e-16
-1.00943e-15
-9.25288e-16
-9.14222e-16
-9.19011e-16
-9.63423e-16
-9.95479e-16
-9.83055e-16
-1.00155e-15
-9.09162e-16
-9.42488e-16
-1.0036e-15
-9.0578e-16
-1.00618e-15
-1.02081e-15
-1.05927e-15
-9.46701e-16
-9.93602e-16
-1.01021e-15
-9.2435e-16
-9.70811e-16
-1.03481e-15
-9.8957e-16
-9.80382e-16
-9.41482e-16
-9.36962e-16
-9.59349e-16
-9.02453e-16
-1.02152e-15
-1.01301e-15
-9.24429e-16
-1.08124e-15
-9.88209e-16
-9.38046e-16
-9.24259e-16
-1.00267e-15
-9.72001e-16
-9.61617e-16
-9.2538e-16
-1.05021e-15
-9.51692e-16
-9.28072e-16
-9.69356e-16
-9.58995e-16
-9.5953e-16
-9.80935e-16
-9.14486e-16
-9.94989e-16
-1.03071e-15
-8.9685e-16
-9.67055e-16
-9.76031e-16
-9.3118e-16
-1.02824e-15
-1.00576e-15
-9.74578e-16
-9.5376e-16
-9.73856e-16
-9.68788e-16
-9.27043e-16
-8.96449e-16
-1.00789e-15
-1.05321e-15
-9.97952e-16
-9.24295e-16
-9.538e-16
-9.546e-16
-1.00216e-15
-9.4878e-16
-9.13148e-16
-9.60956e-16
-9.51797e-16
-9.13399e-16
-9.8333e-16
-9.50418e-16
-9.79501e-16
-1.03441e-15
-9.05654e-16
-9.49994e-16
-9.32581e-16
-9.00476e-16
-9.34156e-16
-9.66526e-16
-9.70649e-16
-1.02022e-15
-1.03198e-15
-9.46321e-16
-9.96055e-16
-9.51986e-16
-9.78433e-16
-1.00856e-15
-9.50554e-16
-9.90352e-16
-9.59552e-16
-9.76671e-16
-9.47222e-16
-9.3256e-16
-1.02035e-15
-1.04844e-15
-9.32731e-16
-1.03037e-15
-9.64375e-16
-9.58955e-16
-9.94092e-16
-9.64556e-16
-1.00486e-15
-9.75687e-16
-9.12928e-16
-9.69738e-16
-1.05728e-15
-9.72783e-16
-9.08724e-16
-9.37345e-16
-9.81853e-16
-9.72514e-16
-9.54836e-16
-1.02065e-15
-9.26231e-16
-9.23366e-16
-9.69385e-16
-9.30145e-16
-9.18081e-16
-9.59123e-16
-9.9829e-16
-9.72603e-16
-9.85796e-16
-9.32594e-16
-9.66748e-16
-9.70146e-16
-1.53516e-15
-1.77336e-15
-1.81144e-15
-1.75062e-15
-1.79607e-15
-1.7783e-15
-1.84791e-15
-1.90245e-15
-1.75027e-15
-1.79931e-15
-1.96561e-15
-1.85357e-15
-1.79584e-15
-1.80052e-15
-1.80487e-15
-1.88262e-15
-1.85227e-15
-1.81799e-15
-1.74452e-15
-1.76002e-15
-1.83969e-15
-1.83968e-15
-1.60031e-15
-1.87955e-15
-1.73848e-15
-1.68975e-15
-1.81038e-15
-1.81544e-15
-1.71066e-15
-1.75273e-15
-1.72117e-15
-1.95419e-15
-1.91505e-15
-1.82401e-15
-1.70941e-15
-1.78013e-15
-1.78227e-15
-1.83177e-15
-1.74159e-15
-1.76669e-15
-1.80917e-15
-1.81419e-15
-1.864e-15
-1.77205e-15
-1.72713e-15
-1.78481e-15
-1.83649e-15
-1.83667e-15
-1.75677e-15
-1.87293e-15
-1.69132e-15
-1.88042e-15
-1.75407e-15
-1.91608e-15
-1.93326e-15
-1.87477e-15
-1.83465e-15
-1.90882e-15
-1.81802e-15
-1.73251e-15
-1.87134e-15
-1.74294e-15
-1.71963e-15
-1.81315e-15
-1.81473e-15
-1.77961e-15
-1.76757e-15
-1.82058e-15
-1.74475e-15
-1.87628e-15
-1.85839e-15
-1.83254e-15
-1.73209e-15
-1.84892e-15
-1.79437e-15
-1.82327e-15
-1.85459e-15
-1.94278e-15
-1.74167e-15
-1.85642e-15
-1.77923e-15
-1.89024e-15
-1.77251e-15
-1.86901e-15
-1.77622e-15
-1.71988e-15
-1.9539e-15
-1.78099e-15
-1.79597e-15
-1.93796e-15
-1.7801e-15
-1.8177e-15
-1.88797e-15
-1.8299e-15
-1.8964e-15
-1.84986e-15
-1.81119e-15
-1.98672e-15
-1.94627e-15
-1.78177e-15
-1.76673e-15
-1.75286e-15
-1.83826e-15
-1.67976e-15
-1.78426e-15
-1.88883e-15
-1.87299e-15
-1.7606e-15
-1.82291e-15
-1.74718e-15
-1.81506e-15
-1.71198e-15
-1.76591e-15
-1.77787e-15
-1.76247e-15
-1.83197e-15
-1.73798e-15
-1.68647e-15
-1.86801e-15
-1.74943e-15
-1.85889e-15
-1.60938e-15
-1.76025e-15
-1.83948e-15
-1.83733e-15
-1.75271e-15
-1.91666e-15
-1.83619e-15
-1.79131e-15
-1.75659e-15
-1.8339e-15
-1.81012e-15
-1.87807e-15
-1.8273e-15
-1.85832e-15
-1.73743e-15
-1.80915e-15
-1.85796e-15
-1.85678e-15
-1.76741e-15
-1.87122e-15
-1.71497e-15
-1.74097e-15
-1.76222e-15
-1.7314e-15
-1.77339e-15
-1.7923e-15
-1.77036e-15
-2.0582e-15
-1.85976e-15
-1.6354e-15
-1.66589e-15
-1.84736e-15
-1.82964e-15
-1.83678e-15
-1.85427e-15
-1.73058e-15
-1.73511e-15
-1.78467e-15
-1.73942e-15
-1.78726e-15
-1.88543e-15
-1.8688e-15
-1.77905e-15
-1.84718e-15
-1.7989e-15
-1.80284e-15
-1.79056e-15
-1.80437e-15
-1.83472e-15
-1.75306e-15
-1.88249e-15
-1.73298e-15
-1.74411e-15
-1.84807e-15
-1.93351e-15
-1.79673e-15
-1.87986e-15
-1.77621e-15
-1.78773e-15
-1.91393e-15
-1.91055e-15
-1.64397e-15
-1.72925e-15
-1.91958e-15
-1.75519e-15
-1.86109e-15
-1.62584e-15
-1.81614e-15
-1.84553e-15
-1.74987e-15
-1.94421e-15
-1.9232e-15
-1.66249e-15
-1.71349e-15
-1.7323e-15
-1.74639e-15
-1.86074e-15
-1.77324e-15
-1.73227e-15
-1.72745e-15
-1.88455e-15
-1.67657e-15
-1.76634e-15
-1.79559e-15
-1.79353e-15
-1.944e-15
-1.7712e-15
-1.8044e-15
-1.95494e-15
-1.70323e-15
-1.80834e-15
-1.7949e-15
-1.86118e-15
-1.86234e-15
-1.73316e-15
-1.94703e-15
-1.85778e-15
-1.78124e-15
-1.8949e-15
-1.84866e-15
-1.87478e-15
-1.81687e-15
-1.93719e-15
-1.74718e-15
-1.73976e-15
-1.77029e-15
-1.80452e-15
-1.8102e-15
-1.76952e-15
-1.82315e-15
-1.96785e-15
-1.88704e-15
-1.81185e-15
-1.86328e-15
-1.82014e-15
-1.67487e-15
-1.85906e-15
-1.81063e-15
-1.86352e-15
-1.90138e-15
-1.8391e-15
-1.71509e-15
-1.77885e-15
-1.72779e-15
-1.81897e-15
-1.88461e-15
-1.84747e-15
-1.83986e-15
-1.84043e-15
-1.76953e-15
-1.80707e-15
-1.79367e-15
-1.84963e-15
-1.86904e-15
-1.80486e-15
-2.57812e-15
-3.24749e-15
-3.57471e-15
-3.55336e-15
-3.41147e-15