# vtk DataFile Version 1.0
Ion Density - Current Sheet
ASCII
DATASET STRUCTURED_POINTS
DIMENSIONS 256 128 1
ORIGIN 0 0 0
SPACING 0.15625 0.15625 1
POINT_DATA 32768
SCALARS rhoi float
LOOKUP_TABLE default
3.03848e-17
2.47446e-17
2.46531e-17
2.44041e-17
2.57494e-17
2.51117e-17
2.45e-17
2.43116e-17
2.43549e-17
2.43205e-17
2.5225e-17
2.49801e-17
2.44541e-17
2.4501e-17
2.47095e-17
2.54835e-17
2.46138e-17
2.49464e-17
2.49955e-17
2.49386e-17
2.53498e-17
2.49896e-17
2.51307e-17
2.49383e-17
2.53485e-17
2.43904e-17
2.47158e-17
2.48571e-17
2.48366e-17
2.501e-17
2.46752e-17
2.5338e-17
2.47039e-17
2.54243e-17
2.46364e-17
2.42329e-17
2.50706e-17
2.48478e-17
2.4907e-17
2.4656e-17
2.46862e-17
2.44094e-17
2.49396e-17
2.42909e-17
2.46335e-17
2.43793e-17
2.48435e-17
2.46337e-17
2.48193e-17
2.49217e-17
2.4796e-17
2.51636e-17
2.40118e-17
2.43103e-17
2.48426e-17
2.48569e-17
2.53841e-17
2.48908e-17
2.4523e-17
2.46971e-17
2.4824e-17
2.5354e-17
2.53361e-17
2.51003e-17
2.4349e-17
2.45273e-17
2.47081e-17
2.42647e-17
2.44774e-17
2.44861e-17
2.48402e-17
2.49306e-17
2.47873e-17
2.46043e-17
2.4892e-17
2.44862e-17
2.4681e-17
2.52127e-17
2.43307e-17
2.48763e-17
2.40111e-17
2.47095e-17
2.42868e-17
2.44435e-17
2.49052e-17
2.48656e-17
2.41418e-17
2.51222e-17
2.4928e-17
2.51031e-17
2.40809e-17
2.43959e-17
2.44657e-17
2.52388e-17
2.54448e-17
2.58619e-17
2.49707e-17
2.45466e-17
2.42859e-17
2.50559e-17
2.40221e-17
2.47709e-17
2.4e-17
2.4713e-17
2.48328e-17
2.43926e-17
2.42566e-17
2.43908e-17
2.47985e-17
2.41037e-17
2.45221e-17
2.46744e-17
2.53404e-17
2.44387e-17
2.51969e-17
2.48198e-17
2.42297e-17
2.4227e-17
2.41053e-17
2.48327e-17
2.47481e-17
2.51091e-17
2.41979e-17
2.43122e-17
2.53794e-17
2.4267e-17
2.5188e-17
2.46394e-17
2.47992e-17
2.43742e-17
2.45156e-17
2.40691e-17
2.59416e-17
2.44732e-17
2.41513e-17
2.50368e-17
2.47599e-17
2.44399e-17
2.51083e-17
2.54086e-17
2.50989e-17
2.41231e-17
2.46404e-17
2.42193e-17
2.53303e-17
2.4176e-17
2.46494e-17
2.4905e-17
2.4444e-17
2.49744e-17
2.47748e-17
2.43772e-17
2.44118e-17
2.40692e-17
2.51061e-17
2.50544e-17
2.53107e-17
2.46037e-17
2.43762e-17
2.54395e-17
2.48697e-17
2.46589e-17
2.4369e-17
2.40875e-17
2.49203e-17
2.52599e-17
2.42683e-17
2.48824e-17
2.5131e-17
2.46616e-17
2.42949e-17
2.47939e-17
2.50083e-17
2.50516e-17
2.47607e-17
2.47088e-17
2.436e-17
2.41639e-17
2.46206e-17
2.47497e-17
2.44596e-17
2.47589e-17
2.54146e-17
2.47424e-17
2.42777e-17
2.42446e-17
2.50107e-17
2.49465e-17
2.5452e-17
2.41692e-17
2.51397e-17
2.48885e-17
2.39674e-17
2.5301e-17
2.47465e-17
2.47712e-17
2.41747e-17
2.42695e-17
2.51608e-17
2.52468e-17
2.43695e-17
2.5254e-17
2.44612e-17
2.51515e-17
2.42408e-17
2.51791e-17
2.46745e-17
2.38565e-17
2.48138e-17
2.46079e-17
2.47609e-17
2.49865e-17
2.48595e-17
2.41711e-17
2.46284e-17
2.43711e-17
2.47668e-17
2.61481e-17
2.47994e-17
2.47964e-17
2.48706e-17
2.45545e-17
2.41314e-17
2.43071e-17
2.43097e-17
2.49698e-17
2.47757e-17
2.45666e-17
2.39487e-17
2.49334e-17
2.45969e-17
2.44934e-17
2.48668e-17
2.51117e-17
2.42487e-17
2.51101e-17
2.45067e-17
2.47486e-17
2.44485e-17
2.47495e-17
2.43207e-17
2.46941e-17
2.45552e-17
2.52708e-17
2.52804e-17
2.5115e-17
2.48236e-17
2.50322e-17
2.57574e-17
2.41463e-17
2.51381e-17
2.44964e-17
2.47347e-17
2.48313e-17
2.44137e-17
2.45538e-17
3.6947e-17
3.31115e-17
3.25226e-17
3.2174e-17
3.20421e-17
3.33476e-17
3.31983e-17
3.29641e-17
3.38726e-17
3.30819e-17
3.36607e-17
3.32612e-17
3.34068e-17
3.24586e-17
3.21592e-17
3.26305e-17
3.29696e-17
3.33077e-17
3.33834e-17
3.2627e-17
3.28118e-17
3.2823e-17
3.14476e-17
3.33775e-17
3.20903e-17
3.37005e-17
3.28015e-17
3.27108e-17
3.28296e-17
3.32206e-17
3.31984e-17
3.21043e-17
3.31887e-17
3.25376e-17
3.3473e-17
3.22361e-17
3.26854e-17
3.28979e-17
3.36467e-17
3.27022e-17
3.29028e-17
3.35252e-17
3.32637e-17
3.38532e-17
3.29114e-17
3.26184e-17
3.30128e-17
3.31012e-17
3.23705e-17
3.24743e-17
3.27577e-17
3.33446e-17
3.24695e-17
3.30914e-17
3.22049e-17
3.29937e-17
3.24588e-17
3.30727e-17
3.32911e-17
3.26484e-17
3.24705e-17
3.30391e-17
3.31686e-17
3.2826e-17
3.31317e-17
3.29635e-17
3.31152e-17
3.2422e-17
3.22491e-17
3.25519e-17
3.33927e-17
3.31282e-17
3.20941e-17
3.29591e-17
3.28855e-17
3.25431e-17
3.27158e-17
3.24717e-17
3.18632e-17
3.30735e-17
3.41519e-17
3.34463e-17
3.30712e-17
3.31483e-17
3.23654e-17
3.35574e-17
3.30185e-17
3.29741e-17
3.24174e-17
3.21876e-17
3.29009e-17
3.26781e-17
3.21176e-17
3.25026e-17
3.2188e-17
3.24225e-17
3.27024e-17
3.29093e-17
3.27362e-17
3.33629e-17
3.31563e-17
3.28869e-17
3.30898e-17
3.23027e-17
3.31858e-17
3.28236e-17
3.26928e-17
3.31958e-17
3.3139e-17
3.32571e-17
3.31987e-17
3.22511e-17
3.35962e-17
3.26576e-17
3.23221e-17
3.28748e-17
3.29454e-17
3.28511e-17
3.32112e-17
3.32661e-17
3.22531e-17
3.27131e-17
3.34385e-17
3.24234e-17
3.28787e-17
3.3781e-17
3.39155e-17
3.2494e-17
3.22519e-17
3.33107e-17
3.27073e-17
3.2656e-17
3.30326e-17
3.2694e-17
3.2207e-17
3.36967e-17
3.31592e-17
3.29318e-17
3.25509e-17
3.28031e-17
3.22509e-17
3.27467e-17
3.29008e-17
3.29502e-17
3.3846e-17
3.28149e-17
3.16813e-17
3.29022e-17
3.30851e-17
3.24586e-17
3.25249e-17
3.27665e-17
3.36722e-17
3.31416e-17
3.32639e-17
3.33031e-17
3.29256e-17
3.26345e-17
3.26425e-17
3.24996e-17
3.25253e-17
3.31704e-17
3.28714e-17
3.25214e-17
3.35031e-17
3.31037e-17
3.24801e-17
3.32714e-17
3.25885e-17
3.21051e-17
3.32536e-17
3.23464e-17
3.29664e-17
3.28227e-17
3.27979e-17
3.33425e-17
3.29883e-17
3.28025e-17
3.28381e-17
3.30344e-17
3.31441e-17
3.33768e-17
3.24911e-17
3.32622e-17
3.24104e-17
3.24648e-17
3.31961e-17
3.21849e-17
3.29658e-17
3.31966e-17
3.36662e-17
3.2704e-17
3.24847e-17
3.31815e-17
3.24518e-17
3.38118e-17
3.26568e-17
3.34512e-17
3.28153e-17
3.34725e-17
3.2771e-17
3.35249e-17
3.29224e-17
3.30346e-17
3.22824e-17
3.31376e-17
3.29451e-17
3.30459e-17
3.32512e-17
3.29758e-17
3.24478e-17
3.3556e-17
3.24924e-17
3.23065e-17
3.31205e-17
3.27358e-17
3.30704e-17
3.26085e-17
3.26266e-17
3.31994e-17
3.24138e-17
3.23864e-17
3.27078e-17
3.28907e-17
3.20702e-17
3.25843e-17
3.26849e-17
3.29252e-17
3.29692e-17
3.32185e-17
3.18694e-17
3.27198e-17
3.24331e-17
3.33696e-17
3.28565e-17
3.22061e-17
3.22949e-17
3.32707e-17
3.33048e-17
3.32708e-17
3.27579e-17
3.30013e-17
3.30121e-17
3.24126e-17
3.16708e-17
3.31153e-17
3.24294e-17
3.2191e-17
3.34524e-17
3.31973e-17
3.29221e-17
3.31318e-17
3.2423e-17
3.29485e-17
3.2588e-17
3.21574e-17
7.18394e-17
5.98719e-17
6.18544e-17
6.12631e-17
6.17913e-17
6.14509e-17
6.01035e-17
6.16159e-17
6.04645e-17
6.06165e-17
5.9825e-17
6.19872e-17
6.25671e-17
6.02859e-17
6.05177e-17
6.1057e-17
6.11258e-17
6.05305e-17
6.12296e-17
6.08078e-17
6.05183e-17
6.2385e-17
6.10532e-17
6.19475e-17
6.15332e-17
6.10863e-17
6.13841e-17
6.0729e-17
6.17178e-17
6.06006e-17
6.06973e-17
6.05162e-17
6.12922e-17
6.04363e-17
6.13719e-17
6.15081e-17
6.19783e-17
6.12811e-17
6.17479e-17
6.03725e-17
6.11628e-17
6.12145e-17
6.14418e-17
6.10866e-17
6.04639e-17
6.18906e-17
6.25397e-17
6.14729e-17
6.16796e-17
6.10068e-17
6.02425e-17
6.11862e-17
6.11985e-17
6.09031e-17
6.03345e-17
6.05826e-17
5.98833e-17
6.25554e-17
6.13498e-17
6.09179e-17
6.1595e-17
6.15498e-17
6.14506e-17
6.11204e-17
5.99475e-17
6.25404e-17
6.07238e-17
6.23602e-17
6.22564e-17
6.20112e-17
6.18493e-17
6.20038e-17
6.11959e-17
6.28781e-17
6.20457e-17
6.13879e-17
6.07577e-17
6.12981e-17
6.22611e-17
6.19768e-17
6.09878e-17
6.10903e-17
6.13091e-17
6.21198e-17
6.08456e-17
6.24363e-17
6.22365e-17
6.14718e-17
6.07042e-17
6.14561e-17
6.27868e-17
6.21363e-17
6.13224e-17
6.06831e-17
6.19756e-17
6.26679e-17
6.23047e-17
6.08454e-17
6.16959e-17
6.07386e-17
6.06074e-17
6.12651e-17
6.20015e-17
6.24285e-17
6.22217e-17
6.14373e-17
6.20153e-17
6.11284e-17
6.14763e-17
6.19073e-17
6.17289e-17
6.17972e-17
6.08121e-17
6.20768e-17
6.1555e-17
6.12873e-17
6.25234e-17
6.13001e-17
6.02219e-17
6.19743e-17
6.21575e-17
6.09407e-17
6.04558e-17
6.11455e-17
6.02833e-17
6.14828e-17
6.21308e-17
6.03296e-17
6.09614e-17
6.04444e-17
6.10814e-17
6.14745e-17
6.12177e-17
6.188e-17
6.24202e-17
6.03708e-17
5.97778e-17
6.19844e-17
6.23251e-17
6.14389e-17
6.17119e-17
6.03687e-17
6.2369e-17
6.01918e-17
6.02696e-17
6.0534e-17
6.20311e-17
6.26194e-17
6.04131e-17
6.09213e-17
6.24442e-17
6.15199e-17
5.99061e-17
6.13274e-17
5.99918e-17
6.14443e-17
6.2455e-17
6.25925e-17
6.21889e-17
6.36058e-17
6.14527e-17
6.20333e-17
6.12434e-17
6.12306e-17
6.0583e-17
6.12353e-17
6.08088e-17
6.13658e-17
6.12542e-17
6.18601e-17
6.18988e-17
6.25583e-17
6.11213e-17
6.16711e-17
6.06325e-17
6.23351e-17
6.15924e-17
6.20777e-17
6.18993e-17
6.03732e-17
6.00199e-17
6.14988e-17
6.11512e-17
6.21098e-17
6.29759e-17
6.22742e-17
6.08702e-17
6.17841e-17
6.07697e-17
6.15033e-17
6.05087e-17
5.97516e-17
6.23493e-17
6.11198e-17
6.11572e-17
6.14781e-17
6.18796e-17
6.09992e-17
5.87138e-17
6.18538e-17
6.08981e-17
6.12551e-17
6.10051e-17
6.29381e-17
6.37736e-17
6.09144e-17
6.25489e-17
6.07268e-17
6.26935e-17
6.04623e-17
6.12031e-17
6.03242e-17
6.11882e-17
6.25023e-17
6.15727e-17
6.098e-17
6.07887e-17
6.15082e-17
6.15942e-17
6.10324e-17
6.04183e-17
6.22642e-17
6.23835e-17
6.17602e-17
6.05345e-17
6.10311e-17
6.18549e-17
6.19183e-17
6.07977e-17
6.21951e-17
6.14161e-17
6.26771e-17
6.12265e-17
6.24429e-17
6.15937e-17
6.03623e-17
6.11603e-17
6.21712e-17
6.18059e-17
6.08874e-17
6.14263e-17
6.10719e-17
6.01253e-17
6.20989e-17
6.23683e-17
6.17056e-17
6.0312e-17
6.19015e-17
6.12167e-17
6.19336e-17
6.26327e-17
6.13008e-17
6.09547e-17
6.32647e-17
6.04331e-17
6.31032e-17
1.32135e-16
1.14262e-16
1.1479e-16
1.14344e-16
1.13155e-16
1.13519e-16
1.14005e-16
1.15273e-16
1.14171e-16
1.15079e-16
1.13276e-16
1.16151e-16
1.15862e-16
1.12794e-16
1.14659e-16
1.15159e-16
1.15041e-16
1.14998e-16
1.14556e-16
1.14898e-16
1.16515e-16
1.13152e-16
1.12971e-16
1.15337e-16
1.13136e-16
1.15438e-16
1.12798e-16
1.1601e-16
1.15281e-16
1.15033e-16
1.17596e-16
1.14302e-16
1.14899e-16
1.15206e-16
1.15629e-16
1.15635e-16
1.17539e-16
1.15166e-16
1.14042e-16
1.15077e-16
1.15593e-16
1.13448e-16
1.13179e-16
1.13073e-16
1.15567e-16
1.14745e-16
1.14285e-16
1.14249e-16
1.14434e-16
1.14686e-16
1.14786e-16
1.14377e-16
1.16141e-16
1.14513e-16
1.15687e-16
1.15492e-16
1.16406e-16
1.15186e-16
1.16127e-16
1.12421e-16
1.14701e-16
1.15377e-16
1.13969e-16
1.16253e-16
1.12458e-16
1.15275e-16
1.16013e-16
1.16939e-16
1.12926e-16
1.14886e-16
1.13904e-16
1.15899e-16
1.14807e-16
1.14439e-16
1.11952e-16
1.14883e-16
1.16886e-16
1.13721e-16
1.18433e-16
1.14991e-16
1.11884e-16
1.14545e-16
1.15237e-16
1.13342e-16
1.12619e-16
1.16492e-16
1.14907e-16
1.14928e-16
1.15308e-16
1.14136e-16
1.13864e-16
1.13168e-16
1.15306e-16
1.15515e-16
1.13675e-16
1.12256e-16
1.14633e-16
1.13182e-16
1.1582e-16
1.13604e-16
1.14136e-16
1.13036e-16
1.15078e-16
1.13022e-16
1.14519e-16
1.11786e-16
1.15436e-16
1.14071e-16
1.1518e-16
1.14658e-16
1.14557e-16
1.13693e-16
1.18514e-16
1.13017e-16
1.14626e-16
1.19005e-16
1.15163e-16
1.1385e-16
1.15277e-16
1.15132e-16
1.14602e-16
1.14586e-16
1.17877e-16
1.13885e-16
1.12454e-16
1.12536e-16
1.14684e-16
1.1826e-16
1.13776e-16
1.15501e-16
1.15284e-16
1.13486e-16
1.12488e-16
1.14707e-16
1.1701e-16
1.1605e-16
1.15448e-16
1.1176e-16
1.14468e-16
1.1427e-16
1.12954e-16
1.13232e-16
1.13628e-16
1.15448e-16
1.14863e-16
1.1575e-16
1.14499e-16
1.12956e-16
1.14415e-16
1.13443e-16
1.14781e-16
1.13046e-16
1.15619e-16
1.13411e-16
1.14624e-16
1.15743e-16
1.11499e-16
1.12396e-16
1.13094e-16
1.16399e-16
1.11934e-16
1.14984e-16
1.11853e-16
1.12537e-16
1.16166e-16
1.17095e-16
1.15019e-16
1.13639e-16
1.14625e-16
1.13866e-16
1.14284e-16
1.15808e-16
1.13957e-16
1.13379e-16
1.14054e-16
1.15912e-16
1.1475e-16
1.1592e-16
1.11984e-16
1.20229e-16
1.1503e-16
1.13502e-16
1.11315e-16
1.16101e-16
1.1346e-16
1.15626e-16
1.15039e-16
1.14823e-16
1.16042e-16
1.11473e-16
1.14865e-16
1.15423e-16
1.14725e-16
1.1311e-16
1.17211e-16
1.13848e-16
1.13917e-16
1.14471e-16
1.15325e-16
1.11845e-16
1.17698e-16
1.15007e-16
1.14053e-16
1.14118e-16
1.14965e-16
1.12416e-16
1.15234e-16
1.17021e-16
1.11647e-16
1.15487e-16
1.14708e-16
1.14011e-16
1.15243e-16
1.14626e-16
1.1607e-16
1.14406e-16
1.14223e-16
1.13218e-16
1.12011e-16
1.15301e-16
1.1389e-16
1.15535e-16
1.15034e-16
1.12726e-16
1.15126e-16
1.15138e-16
1.12833e-16
1.13752e-16
1.16456e-16
1.15345e-16
1.11758e-16
1.14063e-16
1.13823e-16
1.1449e-16
1.14234e-16
1.1103e-16
1.14763e-16
1.14083e-16
1.15265e-16
1.15619e-16
1.16971e-16
1.12958e-16
1.13355e-16
1.16437e-16
1.13869e-16
1.15786e-16
1.15072e-16
1.17071e-16
1.13047e-16
1.12083e-16
1.14624e-16
1.15349e-16
1.15563e-16
1.12797e-16
1.16404e-16
1.13767e-16
2.49578e-16
2.18052e-16
2.1006e-16
2.13202e-16
2.14811e-16
2.14638e-16
2.17195e-16
2.19802e-16
2.12263e-16
2.14968e-16
2.10263e-16
2.17921e-16
2.18161e-16
2.11574e-16
2.14036e-16
2.17598e-16
2.11965e-16
2.1841e-16
2.16001e-16
2.14074e-16
2.14012e-16
2.14842e-16
2.14751e-16
2.14849e-16
2.13593e-16
2.18461e-16
2.16487e-16
2.1172e-16
2.17206e-16
2.16951e-16
2.10259e-16
2.1232e-16
2.16444e-16
2.11183e-16
2.12324e-16
2.13688e-16
2.12478e-16
2.16833e-16
2.14132e-16
2.09749e-16
2.14855e-16
2.14736e-16
2.14278e-16
2.17738e-16
2.08085e-16
2.17752e-16
2.18929e-16
2.14603e-16
2.1325e-16
2.18681e-16
2.13483e-16
2.17167e-16
2.11715e-16
2.10124e-16
2.18558e-16
2.11842e-16
2.12488e-16
2.18143e-16
2.16305e-16
2.1368e-16
2.17509e-16
2.12507e-16
2.1753e-16
2.15825e-16
2.14016e-16
2.18585e-16
2.08284e-16
2.09961e-16
2.12829e-16
2.16486e-16
2.15086e-16
2.10871e-16
2.14958e-16
2.13681e-16
2.12056e-16
2.13233e-16
2.13296e-16
2.12944e-16
2.15693e-16
2.11373e-16
2.13131e-16
2.12431e-16
2.1551e-16
2.16465e-16
2.14802e-16
2.10478e-16
2.1349e-16
2.16509e-16
2.16054e-16
2.16981e-16
2.15047e-16
2.11709e-16
2.13052e-16
2.15148e-16
2.14802e-16
2.18595e-16
2.16929e-16
2.16406e-16
2.14852e-16
2.15359e-16
2.12571e-16
2.13221e-16
2.1807e-16
2.13377e-16
2.14229e-16
2.14542e-16
2.12713e-16
2.12692e-16
2.14011e-16
2.13457e-16
2.12065e-16
2.17626e-16
2.14384e-16
2.11963e-16
2.12126e-16
2.15647e-16
2.1596e-16
2.16271e-16
2.15332e-16
2.14882e-16
2.18919e-16
2.1866e-16
2.12848e-16
2.15635e-16
2.15273e-16
2.13157e-16
2.12572e-16
2.10255e-16
2.11571e-16
2.1463e-16
2.1298e-16
2.19201e-16
2.08821e-16
2.14128e-16
2.0991e-16
2.15191e-16
2.14642e-16
2.14648e-16
2.11008e-16
2.16189e-16
2.16199e-16
2.18304e-16
2.14448e-16
2.16911e-16
2.1679e-16
2.2038e-16
2.1207e-16
2.13851e-16
2.19111e-16
2.15115e-16
2.14255e-16
2.12324e-16
2.1363e-16
2.17005e-16
2.07439e-16
2.12054e-16
2.16667e-16
2.17808e-16
2.18143e-16
2.14357e-16
2.08194e-16
2.17456e-16
2.20993e-16
2.1457e-16
2.17739e-16
2.12878e-16
2.16105e-16
2.11822e-16
2.16056e-16
2.16799e-16
2.18083e-16
2.15528e-16
2.15941e-16
2.16696e-16
2.15209e-16
2.1255e-16
2.13394e-16
2.09639e-16
2.1185e-16
2.11518e-16
2.20584e-16
2.17021e-16
2.18724e-16
2.11954e-16
2.14569e-16
2.10792e-16
2.12586e-16
2.15836e-16
2.13146e-16
2.1362e-16
2.17858e-16
2.12291e-16
2.12519e-16
2.19064e-16
2.14646e-16
2.13845e-16
2.15141e-16
2.12101e-16
2.1151e-16
2.16571e-16
2.14265e-16
2.14099e-16
2.23203e-16
2.13076e-16
2.12727e-16
2.08683e-16
2.15575e-16
2.13679e-16
2.11733e-16
2.14543e-16
2.1787e-16
2.16438e-16
2.11142e-16
2.17491e-16
2.13824e-16
2.1173e-16
2.09274e-16
2.15949e-16
2.1573e-16
2.14467e-16
2.10207e-16
2.15446e-16
2.15371e-16
2.13356e-16
2.15001e-16
2.1272e-16
2.13552e-16
2.16307e-16
2.11678e-16
2.13144e-16
2.11844e-16
2.11598e-16
2.1149e-16
2.12835e-16
2.09687e-16
2.13741e-16
2.17945e-16
2.16717e-16
2.10649e-16
2.19582e-16
2.14688e-16
2.17745e-16
2.15519e-16
2.1059e-16
2.13831e-16
2.1428e-16
2.12709e-16
2.15851e-16
2.13935e-16
2.15537e-16
2.18199e-16
2.10082e-16
2.13133e-16
2.15434e-16
2.23417e-16
2.10304e-16
4.54278e-16
4.05349e-16
3.99023e-16
4.00692e-16
3.98942e-16
4.10091e-16
3.95502e-16
3.96151e-16
3.98224e-16
4.01613e-16
3.98942e-16
3.89931e-16
3.94571e-16
3.99824e-16
4.01284e-16
4.05744e-16
3.95316e-16
4.01919e-16
3.927e-16
4.01353e-16
4.04545e-16
3.94299e-16
3.9618e-16
3.9539e-16
4.03622e-16
4.01584e-16
3.9425e-16
3.97919e-16
3.94167e-16
3.92283e-16
3.99785e-16
4.10833e-16
3.97233e-16
4.00123e-16
4.02724e-16
3.93092e-16
4.09744e-16
3.9343e-16
4.02209e-16
3.97805e-16
3.92544e-16
4.06699e-16
4.01801e-16
3.96109e-16
4.03208e-16
3.94204e-16
4.02668e-16
3.98772e-16
3.994e-16
4.07728e-16
3.98579e-16
3.95215e-16
3.99445e-16
4.01738e-16
3.9714e-16
3.9549e-16
3.98157e-16
3.94821e-16
3.97785e-16
3.94746e-16
3.97989e-16
3.99979e-16
3.91746e-16
3.9245e-16
4.07909e-16
3.9888e-16
3.9449e-16
4.12949e-16
4.0135e-16
3.89417e-16
3.87937e-16
3.96052e-16
4.06885e-16
3.97136e-16
4.0145e-16
3.97364e-16
4.00598e-16
4.00509e-16
3.96279e-16
4.07493e-16
3.94107e-16
3.99692e-16
4.00809e-16
4.05442e-16
4.04862e-16
3.92206e-16
4.07283e-16
3.94658e-16
3.98348e-16
3.97251e-16
4.04238e-16
4.03e-16
4.02647e-16
3.8976e-16
3.97629e-16
3.89245e-16
4.01151e-16
4.07316e-16
3.94119e-16
3.99893e-16
4.13088e-16
3.94943e-16
4.01908e-16
4.03138e-16
3.94919e-16
4.03905e-16
4.01355e-16
3.97099e-16
4.12348e-16
3.96141e-16
3.998e-16
4.01198e-16
4.10045e-16
3.96406e-16
4.05711e-16
3.89657e-16
3.9013e-16
4.00948e-16
4.00822e-16
4.01519e-16
3.88082e-16
4.10217e-16
3.98238e-16
4.02635e-16
4.01139e-16
4.0563e-16
4.10252e-16
4.04018e-16
4.08335e-16
3.94689e-16
4.03375e-16
4.08364e-16
3.89292e-16
4.03167e-16
4.12989e-16
3.9938e-16
4.04111e-16
4.07668e-16
3.94029e-16
4.02196e-16
3.91955e-16
3.88411e-16
3.9886e-16
4.07356e-16
3.97428e-16
3.95761e-16
3.97079e-16
4.00149e-16
3.93821e-16
3.95972e-16
4.03116e-16
3.99492e-16
4.04415e-16
3.90697e-16
3.99605e-16
3.9537e-16
4.0614e-16
4.00093e-16
3.95764e-16
4.04681e-16
3.99878e-16
4.06508e-16
4.04815e-16
3.96929e-16
3.94708e-16
4.00038e-16
4.01532e-16
3.9892e-16
3.95697e-16
4.06094e-16
4.02782e-16
3.96212e-16
4.03132e-16
3.95666e-16
4.02543e-16
4.01264e-16
4.01508e-16
3.95595e-16
3.92817e-16
3.99608e-16
4.00347e-16
3.98922e-16
3.97927e-16
3.97717e-16
3.99535e-16
4.01682e-16
4.05411e-16
3.99774e-16
3.96025e-16
4.06532e-16
4.00419e-16
4.01612e-16
3.984e-16
3.94391e-16
4.00906e-16
4.0227e-16
4.08949e-16
3.90577e-16
4.03803e-16
3.98836e-16
4.01179e-16
3.99279e-16
3.92326e-16
4.04702e-16
4.08713e-16
3.91559e-16
3.98411e-16
4.07097e-16
4.02027e-16
3.9139e-16
3.96331e-16
4.01753e-16
3.95751e-16
3.97044e-16
3.94833e-16
4.1126e-16
4.01897e-16
4.02325e-16
3.94439e-16
4.02356e-16
4.02643e-16
3.92192e-16
4.00305e-16
4.08202e-16
4.02285e-16
4.02037e-16
4.02496e-16
4.02579e-16
4.02578e-16
4.07146e-16
4.01541e-16
4.04264e-16
4.04696e-16
4.01501e-16
3.99453e-16
4.12167e-16
3.96079e-16
3.96265e-16
3.94987e-16
3.977e-16
3.99302e-16
3.97077e-16
4.09235e-16
3.98327e-16
3.93484e-16
4.05617e-16
3.96382e-16
3.96111e-16
4.04312e-16
4.00137e-16
3.96182e-16
3.97438e-16
3.97826e-16
3.9139e-16
4.01477e-16
4.00999e-16
8.67303e-16
7.45203e-16
7.48902e-16
7.40113e-16
7.58168e-16
7.46366e-16
7.37197e-16
7.4659e-16
7.41892e-16
7.50805e-16
7.43808e-16
7.5361e-16
7.4585e-16
7.26064e-16
7.4492e-16
7.43633e-16
7.41882e-16
7.57469e-16
7.3392e-16
7.49165e-16
7.44596e-16
7.50206e-16
7.44629e-16
7.54954e-16
7.50615e-16
7.58221e-16
7.60318e-16
7.49141e-16
7.44644e-16
7.44808e-16
7.6608e-16
7.46862e-16
7.35789e-16
7.23267e-16
7.42758e-16
7.62104e-16
7.59665e-16
7.51742e-16
7.26712e-16
7.55249e-16
7.52596e-16
7.60433e-16
7.70026e-16
7.34333e-16
7.27128e-16
7.69148e-16
7.38054e-16
7.42396e-16
7.52193e-16
7.46381e-16
7.44077e-16
7.46425e-16
7.63683e-16
7.63e-16
7.53408e-16
7.46758e-16
7.65849e-16
7.55502e-16
7.36639e-16
7.58678e-16
7.43385e-16
7.41033e-16
7.49693e-16
7.60224e-16
7.5318e-16
7.39726e-16
7.51204e-16
7.37651e-16
7.51719e-16
7.59365e-16
7.71162e-16
7.55599e-16
7.49398e-16
7.57112e-16
7.38716e-16
7.58628e-16
7.512e-16
7.49515e-16
7.42636e-16
7.26969e-16
7.49475e-16
7.52479e-16
7.30337e-16
7.7326e-16
7.40211e-16
7.48231e-16
7.49985e-16
7.44349e-16
7.48036e-16
7.42579e-16
7.47363e-16
7.36672e-16
7.55145e-16
7.47968e-16
7.52284e-16
7.42675e-16
7.47738e-16
7.44337e-16
7.40114e-16
7.38756e-16
7.56222e-16
7.42289e-16
7.40345e-16
7.66113e-16
7.2954e-16
7.65582e-16
7.37555e-16
7.57361e-16
7.50547e-16
7.47743e-16
7.47633e-16
7.40155e-16
7.45888e-16
7.44092e-16
7.64948e-16
7.63043e-16
7.38801e-16
7.54484e-16
7.68248e-16
7.43695e-16
7.44962e-16
7.43149e-16
7.25233e-16
7.39115e-16
7.46697e-16
7.37416e-16
7.37844e-16
7.46957e-16
7.59537e-16
7.60969e-16
7.45515e-16
7.46271e-16
7.4718e-16
7.60246e-16
7.44103e-16
7.39638e-16
7.42361e-16
7.43183e-16
7.47429e-16
7.5164e-16
7.5607e-16
7.48347e-16
7.55423e-16
7.6026e-16
7.39319e-16
7.52646e-16
7.51297e-16
7.37235e-16
7.34377e-16
7.60498e-16
7.46142e-16
7.46203e-16
7.57157e-16
7.47248e-16
7.44467e-16
7.65885e-16
7.36055e-16
7.42562e-16
7.55653e-16
7.27757e-16
7.43189e-16
7.46005e-16
7.44524e-16
7.62036e-16
7.36026e-16
7.30445e-16
7.46182e-16
7.42323e-16
7.47012e-16
7.37664e-16
7.57044e-16
7.56156e-16
7.40045e-16
7.46503e-16
7.65845e-16
7.46012e-16
7.4078e-16
7.72041e-16
7.51606e-16
7.40495e-16
7.32817e-16
7.72574e-16
7.52529e-16
7.53372e-16
7.55044e-16
7.414e-16
7.48024e-16
7.41943e-16
7.66447e-16
7.38413e-16
7.49767e-16
7.57598e-16
7.4062e-16
7.51147e-16
7.46149e-16
7.3263e-16
7.56678e-16
7.49322e-16
7.55055e-16
7.46553e-16
7.359e-16
7.56724e-16
7.42791e-16
7.6063e-16
7.62853e-16
7.51536e-16
7.6282e-16
7.51554e-16
7.54395e-16
7.4312e-16
7.38444e-16
7.53536e-16
7.45749e-16
7.38659e-16
7.47788e-16
7.44308e-16
7.31261e-16
7.50066e-16
7.30902e-16
7.47433e-16
7.54008e-16
7.44655e-16
7.49019e-16
7.29663e-16
7.34279e-16
7.42477e-16
7.44733e-16
7.52253e-16
7.46028e-16
7.4578e-16
7.43822e-16
7.5142e-16
7.51273e-16
7.51232e-16
7.53065e-16
7.25293e-16
7.5549e-16
7.4268e-16
7.49706e-16
7.38999e-16
7.33523e-16
7.3736e-16
7.6543e-16
7.44458e-16
7.60815e-16
7.44032e-16
7.57375e-16
7.4301e-16
7.60611e-16
7.37074e-16
7.61595e-16
7.678e-16
7.47285e-16
7.40894e-16
7.4318e-16
7.63765e-16
1.57718e-15
1.41258e-15
1.40877e-15
1.38312e-15
1.41186e-15
1.39751e-15
1.42839e-15
1.40297e-15
1.36174e-15
1.37602e-15
1.39075e-15
1.42288e-15
1.38501e-15
1.4247e-15
1.36509e-15
1.40377e-15
1.41114e-15
1.41381e-15
1.38461e-15
1.38211e-15
1.36857e-15
1.40299e-15
1.38533e-15
1.41744e-15
1.37328e-15
1.42152e-15
1.406e-15
1.38158e-15
1.39362e-15
1.40331e-15
1.36189e-15
1.43311e-15
1.4148e-15
1.38956e-15
1.40129e-15
1.41436e-15
1.40889e-15
1.37813e-15
1.41312e-15
1.39818e-15
1.35213e-15
1.40273e-15
1.41022e-15
1.40215e-15
1.41749e-15
1.3793e-15
1.40116e-15
1.38077e-15
1.40056e-15
1.39173e-15
1.38912e-15
1.3909e-15
1.40403e-15
1.37777e-15
1.40309e-15
1.39223e-15
1.40413e-15
1.38038e-15
1.38961e-15
1.4247e-15
1.36442e-15
1.43951e-15
1.39505e-15
1.38987e-15
1.37009e-15
1.38734e-15
1.38888e-15
1.43675e-15
1.37538e-15
1.38713e-15
1.42069e-15
1.39433e-15
1.38422e-15
1.39207e-15
1.40478e-15
1.39654e-15
1.42621e-15
1.38382e-15
1.39035e-15
1.42919e-15
1.36971e-15
1.41385e-15
1.37947e-15
1.39478e-15
1.41331e-15
1.3754e-15
1.38925e-15
1.37469e-15
1.39792e-15
1.39637e-15
1.38476e-15
1.41844e-15
1.39859e-15
1.37968e-15
1.39852e-15
1.41034e-15
1.38833e-15
1.42281e-15
1.38304e-15
1.38884e-15
1.38212e-15
1.39038e-15
1.40202e-15
1.39497e-15
1.4108e-15
1.38084e-15
1.39815e-15
1.37218e-15
1.39175e-15
1.38377e-15
1.39179e-15
1.39952e-15
1.36222e-15
1.40918e-15
1.35945e-15
1.40571e-15
1.38756e-15
1.37166e-15
1.39004e-15
1.33738e-15
1.45917e-15
1.41469e-15
1.40334e-15
1.38358e-15
1.39635e-15
1.41251e-15
1.40554e-15
1.39564e-15
1.40358e-15
1.37975e-15
1.40032e-15
1.38674e-15
1.40295e-15
1.40281e-15
1.38266e-15
1.40093e-15
1.36743e-15
1.38997e-15
1.40429e-15
1.37841e-15
1.3853e-15
1.40805e-15
1.4033e-15
1.36934e-15
1.4183e-15
1.38872e-15
1.39521e-15
1.38778e-15
1.42273e-15
1.39673e-15
1.37754e-15
1.43393e-15
1.41619e-15
1.41388e-15
1.37192e-15
1.43072e-15
1.42614e-15
1.37333e-15
1.42641e-15
1.37997e-15
1.3952e-15
1.3893e-15
1.40917e-15
1.38718e-15
1.40588e-15
1.40607e-15
1.41166e-15
1.39024e-15
1.40007e-15
1.38906e-15
1.40873e-15
1.37618e-15
1.41241e-15
1.37481e-15
1.38676e-15
1.40642e-15
1.38414e-15
1.41684e-15
1.37667e-15
1.40342e-15
1.40727e-15
1.39502e-15
1.36658e-15
1.38246e-15
1.39076e-15
1.39769e-15
1.3997e-15
1.36634e-15
1.4109e-15
1.415e-15
1.36411e-15
1.38293e-15
1.40215e-15
1.38832e-15
1.40539e-15
1.39728e-15
1.35499e-15
1.39788e-15
1.39377e-15
1.40003e-15
1.41633e-15
1.39203e-15
1.40511e-15
1.42425e-15
1.35429e-15
1.37505e-15
1.40114e-15
1.3871e-15
1.3955e-15
1.39286e-15
1.39361e-15
1.41866e-15
1.41182e-15
1.3861e-15
1.39102e-15
1.40451e-15
1.40164e-15
1.41934e-15
1.38e-15
1.40117e-15
1.39156e-15
1.40615e-15
1.39152e-15
1.39247e-15
1.43395e-15
1.40826e-15
1.38677e-15
1.41452e-15
1.39856e-15
1.3833e-15
1.38811e-15
1.37224e-15
1.41174e-15
1.40248e-15
1.40476e-15
1.40047e-15
1.39854e-15
1.37886e-15
1.3766e-15
1.3758e-15
1.39782e-15
1.39726e-15
1.38988e-15
1.41856e-15
1.3842e-15
1.38263e-15
1.43509e-15
1.36166e-15
1.37845e-15
1.37213e-15
1.40161e-15
1.39994e-15
1.4011e-15
1.3903e-15
1.38799e-15
1.37092e-15
3.06412e-15
2.61791e-15
2.57574e-15
2.58732e-15
2.59149e-15
2.55946e-15
2.62872e-15
2.63007e-15
2.58952e-15
2.64275e-15
2.64134e-15
2.65658e-15
2.64285e-15
2.61002e-15
2.59657e-15
2.5999e-15
2.56833e-15
2.62984e-15
2.57558e-15
2.574e-15
2.62626e-15
2.62194e-15
2.55679e-15
2.59864e-15
2.64559e-15
2.58796e-15
2.59332e-15
2.63686e-15
2.56183e-15
2.58551e-15
2.60948e-15
2.66013e-15
2.64581e-15
2.59917e-15
2.59349e-15
2.57324e-15
2.58124e-15
2.58188e-15
2.57664e-15
2.56242e-15
2.58309e-15
2.60525e-15
2.64708e-15
2.5601e-15
2.6301e-15
2.64359e-15
2.61084e-15
2.58097e-15
2.5731e-15
2.67791e-15
2.55601e-15
2.61475e-15
2.61845e-15
2.65501e-15
2.67381e-15
2.60078e-15
2.63982e-15
2.62487e-15
2.60095e-15
2.59322e-15
2.69967e-15
2.60238e-15
2.58788e-15
2.59307e-15
2.6195e-15
2.65366e-15
2.55555e-15
2.59661e-15
2.60126e-15
2.62463e-15
2.58797e-15
2.59737e-15
2.57155e-15
2.64737e-15
2.56611e-15
2.62225e-15
2.60076e-15
2.65418e-15
2.59067e-15
2.6589e-15
2.58709e-15
2.63403e-15
2.60925e-15
2.61781e-15
2.64682e-15
2.58119e-15
2.63403e-15
2.59013e-15
2.56356e-15
2.67498e-15
2.62776e-15
2.59639e-15
2.636e-15
2.64993e-15
2.67635e-15
2.60876e-15
2.58928e-15
2.64235e-15
2.63624e-15
2.64868e-15
2.62932e-15
2.64807e-15
2.6344e-15
2.55471e-15
2.63216e-15
2.64902e-15
2.63103e-15
2.62158e-15
2.58025e-15
2.62233e-15
2.61068e-15
2.6057e-15
2.58709e-15
2.61162e-15
2.61287e-15
2.60171e-15
2.60043e-15
2.59757e-15
2.61913e-15
2.54432e-15
2.63391e-15
2.5906e-15
2.64768e-15
2.64418e-15
2.66691e-15
2.57415e-15
2.62113e-15
2.60389e-15
2.63768e-15
2.55394e-15
2.5864e-15
2.62278e-15
2.57386e-15
2.57242e-15
2.61759e-15
2.5624e-15
2.63784e-15
2.60227e-15
2.61247e-15
2.62283e-15
2.61043e-15
2.60069e-15
2.61408e-15
2.66792e-15
2.58577e-15
2.59437e-15
2.64584e-15
2.55579e-15
2.70486e-15
2.66298e-15
2.57991e-15
2.55328e-15
2.57963e-15
2.55859e-15
2.57992e-15
2.6208e-15
2.55877e-15
2.61428e-15
2.63214e-15
2.61742e-15
2.66316e-15
2.65782e-15
2.61852e-15
2.56599e-15
2.59716e-15
2.57453e-15
2.60173e-15
2.59133e-15
2.57945e-15
2.61831e-15
2.60374e-15
2.65962e-15
2.63614e-15
2.57279e-15
2.63568e-15
2.66683e-15
2.58883e-15
2.66568e-15
2.58227e-15
2.60724e-15
2.65525e-15
2.63751e-15
2.59867e-15
2.59796e-15
2.64088e-15
2.57389e-15
2.64914e-15
2.58811e-15
2.61391e-15
2.65139e-15
2.6176e-15
2.60649e-15
2.62542e-15
2.58207e-15
2.5908e-15
2.5981e-15
2.5962e-15
2.65758e-15
2.56468e-15
2.62469e-15
2.55875e-15
2.62883e-15
2.57262e-15
2.58143e-15
2.60955e-15
2.61066e-15
2.65188e-15
2.58569e-15
2.59134e-15
2.67333e-15
2.58181e-15
2.62024e-15
2.58506e-15
2.61362e-15
2.64506e-15
2.52959e-15
2.6602e-15
2.59322e-15
2.62843e-15
2.65153e-15
2.62892e-15
2.64694e-15
2.57749e-15
2.70684e-15
2.57451e-15
2.62497e-15
2.62966e-15
2.60654e-15
2.62248e-15
2.61141e-15
2.66362e-15
2.67096e-15
2.61985e-15
2.60837e-15
2.62361e-15
2.61401e-15
2.5998e-15
2.68122e-15
2.63152e-15
2.60943e-15
2.63535e-15
2.62186e-15
2.60462e-15
2.63174e-15
2.59097e-15
2.58329e-15
2.60943e-15
2.67428e-15
2.59241e-15
2.58807e-15
2.62674e-15
2.61883e-15
2.59175e-15
2.57718e-15
2.62708e-15
2.6039e-15
5.56183e-15
4.80153e-15
5.02751e-15
4.95344e-15
4.92544e-15
4.89182e-15
4.75404e-15
4.86562e-15
4.92554e-15
4.789e-15
4.83144e-15
4.85273e-15
4.77327e-15
4.88852e-15
4.83073e-15
4.75611e-15
4.89712e-15
4.85745e-15
4.82261e-15
4.92695e-15
4.8052e-15
4.84918e-15
4.85209e-15
4.93291e-15
4.90254e-15
4.85396e-15
4.90511e-15
4.85877e-15
4.8134e-15
4.88647e-15
4.87772e-15
4.82279e-15
4.80639e-15
4.87879e-15
4.87426e-15
4.95451e-15
4.82509e-15
4.95275e-15
4.98268e-15
4.93767e-15
4.96164e-15
4.79613e-15
4.88624e-15
4.9218e-15
4.82879e-15
4.8458e-15
4.88989e-15
4.94372e-15
4.902e-15
4.83028e-15
4.91164e-15
4.94574e-15
4.98394e-15
4.93383e-15
4.77836e-15
4.71904e-15
4.82706e-15
4.85332e-15
4.85077e-15
4.86218e-15
4.90899e-15
4.82834e-15
4.77476e-15
4.94221e-15
4.83197e-15
4.82443e-15
4.89868e-15
4.88897e-15
4.86455e-15
4.99214e-15
4.89363e-15
4.8452e-15
4.90558e-15
4.8992e-15
4.88828e-15
4.85943e-15
4.83535e-15
4.90541e-15
4.83096e-15
4.96381e-15
4.85875e-15
4.87953e-15
4.86532e-15
4.82792e-15
4.88484e-15
4.84671e-15
4.87727e-15
4.90953e-15
4.78506e-15
4.73251e-15
4.7796e-15
4.88328e-15
4.96035e-15
4.81037e-15
4.8501e-15
4.81952e-15
4.89735e-15
4.82512e-15
4.89695e-15
4.81127e-15
4.80931e-15
4.89522e-15
4.93783e-15
4.78761e-15
4.85084e-15
4.9126e-15
4.89453e-15
4.89068e-15
4.89545e-15
4.83756e-15
4.9302e-15
4.8663e-15
4.92422e-15
5.02396e-15
4.89072e-15
4.79432e-15
4.90342e-15
4.84698e-15
4.95835e-15
4.84061e-15
4.83841e-15
4.77431e-15
4.84809e-15
4.78719e-15
4.91232e-15
4.77545e-15
4.83208e-15
4.78689e-15
4.78858e-15
4.93893e-15
4.93588e-15
4.92222e-15
4.7665e-15
4.88569e-15
4.8176e-15
4.91131e-15
4.89007e-15
4.92643e-15
4.86033e-15
4.84177e-15
4.84548e-15
4.89647e-15
4.89519e-15
4.70628e-15
4.82324e-15
4.95732e-15
4.92153e-15
4.81314e-15
4.82692e-15
4.79057e-15
4.77952e-15
4.9836e-15
4.92906e-15
4.80161e-15
4.84082e-15
5.00432e-15
4.94443e-15
4.8372e-15
4.79159e-15
4.81244e-15
4.82277e-15
4.90405e-15
4.8531e-15
4.92263e-15
4.96237e-15
4.88094e-15
4.89376e-15
4.83495e-15
4.90684e-15
4.90938e-15
4.81509e-15
4.83256e-15
4.80127e-15
4.82664e-15
4.71362e-15
4.92201e-15
4.81617e-15
4.94985e-15
4.89718e-15
4.86574e-15
4.91596e-15
4.83187e-15
4.84063e-15
4.91553e-15
4.88767e-15
4.85676e-15
4.91592e-15
4.76822e-15
4.90203e-15
4.96875e-15
4.77205e-15
4.90466e-15
4.90468e-15
4.95731e-15
4.85584e-15
4.9295e-15
4.83943e-15
4.8633e-15
4.84099e-15
4.94644e-15
4.8555e-15